/*--------------------------------*- C++ -*----------------------------------*\
| =========                 |                                                 |
| \\      /  F ield         | OpenFOAM: The Open Source CFD Toolbox           |
|  \\    /   O peration     | Version:  2012                                  |
|   \\  /    A nd           | Website:  www.openfoam.com                      |
|    \\/     M anipulation  |                                                 |
\*---------------------------------------------------------------------------*/
FoamFile
{
    version     2.0;
    format      ascii;
    class       volScalarField;
    location    "100";
    object      p;
}
// * * * * * * * * * * * * * * * * * * * * * * * * * * * * * * * * * * * * * //

dimensions      [0 2 -2 0 0 0 0];


internalField   nonuniform List<scalar> 
1000
(
-1.06808e+181
-1.03665e+181
-9.32007e+180
-8.31358e+180
-7.28e+180
-6.02078e+180
-4.5247e+180
-2.58467e+180
2.01771e+179
1.4184e+179
-1.06566e+181
-9.97362e+180
-9.01137e+180
-8.02433e+180
-6.7987e+180
-5.47158e+180
-4.05899e+180
-2.34056e+180
-2.79655e+179
2.66785e+179
-1.0543e+181
-9.66048e+180
-8.58033e+180
-7.46588e+180
-6.29779e+180
-5.14791e+180
-3.90065e+180
-2.35392e+180
-6.47981e+179
-3.46989e+178
-1.03821e+181
-9.34275e+180
-8.18759e+180
-7.09478e+180
-6.09737e+180
-5.08812e+180
-3.87379e+180
-2.31828e+180
-7.41696e+179
-1.29373e+179
-1.02061e+181
-9.11384e+180
-8.08746e+180
-7.06667e+180
-5.98248e+180
-4.83569e+180
-3.55098e+180
-2.11372e+180
-6.60589e+179
-1.32834e+179
-9.95546e+180
-8.94142e+180
-8.0547e+180
-7.08913e+180
-5.88486e+180
-4.55586e+180
-3.24009e+180
-1.91248e+180
-5.73576e+179
-1.21576e+179
-9.78458e+180
-8.8082e+180
-7.8991e+180
-6.76688e+180
-5.445e+180
-4.0877e+180
-2.84706e+180
-1.74898e+180
-6.65327e+179
-1.43889e+179
-9.46009e+180
-8.4826e+180
-7.5694e+180
-6.32642e+180
-4.99438e+180
-3.6613e+180
-2.61839e+180
-1.72693e+180
-8.91364e+179
-2.35677e+179
-9.00497e+180
-8.22635e+180
-7.3223e+180
-6.10041e+180
-4.8605e+180
-3.68363e+180
-2.69524e+180
-1.75061e+180
-8.65644e+179
-2.30763e+179
-8.91711e+180
-8.07799e+180
-7.09471e+180
-5.94509e+180
-4.74536e+180
-3.53052e+180
-2.44126e+180
-1.48996e+180
-8.12859e+179
-2.70513e+179
-1.084e+181
-1.03153e+181
-9.36381e+180
-8.40387e+180
-7.40863e+180
-6.15279e+180
-4.609e+180
-2.65734e+180
-9.25578e+178
5.62978e+179
-1.08185e+181
-1.00183e+181
-9.0888e+180
-8.08552e+180
-6.89882e+180
-5.57699e+180
-4.12824e+180
-2.40382e+180
-4.98073e+179
1.08701e+179
-1.06306e+181
-9.75193e+180
-8.72064e+180
-7.57805e+180
-6.4419e+180
-5.24243e+180
-3.91686e+180
-2.36264e+180
-7.36509e+179
-1.06866e+179
-1.04583e+181
-9.51569e+180
-8.3626e+180
-7.26526e+180
-6.22841e+180
-5.12238e+180
-3.81955e+180
-2.3142e+180
-7.83212e+179
-1.6172e+179
-1.02115e+181
-9.21754e+180
-8.22553e+180
-7.25101e+180
-6.1515e+180
-4.92374e+180
-3.61079e+180
-2.17286e+180
-6.38776e+179
-1.42148e+179
-9.92273e+180
-8.92501e+180
-8.10554e+180
-7.26008e+180
-6.20401e+180
-4.836e+180
-3.46475e+180
-2.05849e+180
-5.14536e+179
-1.18548e+179
-9.9064e+180
-8.92028e+180
-8.01493e+180
-7.05838e+180
-5.81228e+180
-4.39293e+180
-3.07884e+180
-1.87776e+180
-5.86952e+179
-1.29498e+179
-9.69432e+180
-8.65824e+180
-7.72363e+180
-6.73162e+180
-5.35391e+180
-3.82181e+180
-2.73692e+180
-1.77766e+180
-7.75451e+179
-1.71729e+179
-9.44897e+180
-8.37841e+180
-7.39673e+180
-6.30545e+180
-5.04038e+180
-3.73438e+180
-2.67137e+180
-1.68006e+180
-7.24979e+179
-1.70278e+179
-9.26184e+180
-8.1612e+180
-7.14693e+180
-6.04779e+180
-4.83868e+180
-3.61442e+180
-2.5095e+180
-1.4914e+180
-6.53669e+179
-1.46708e+179
-1.14358e+181
-1.05179e+181
-9.58696e+180
-8.557e+180
-7.34485e+180
-6.03051e+180
-4.57022e+180
-2.7634e+180
-3.71944e+179
1.20624e+178
-1.11665e+181
-1.01937e+181
-9.26145e+180
-8.11063e+180
-6.83782e+180
-5.56981e+180
-4.22427e+180
-2.64041e+180
-7.93243e+179
-8.34259e+178
-1.08587e+181
-9.90839e+180
-8.89841e+180
-7.69722e+180
-6.46691e+180
-5.27494e+180
-4.03751e+180
-2.63143e+180
-1.07553e+180
-2.14357e+179
-1.05937e+181
-9.70573e+180
-8.69382e+180
-7.49397e+180
-6.30743e+180
-5.16787e+180
-3.90651e+180
-2.52133e+180
-1.09779e+180
-2.4595e+179
-1.05204e+181
-9.47357e+180
-8.43524e+180
-7.43324e+180
-6.30233e+180
-5.09281e+180
-3.78846e+180
-2.35805e+180
-8.1165e+179
-1.77923e+179
-1.02323e+181
-9.09823e+180
-8.2499e+180
-7.41613e+180
-6.35801e+180
-5.01848e+180
-3.63993e+180
-2.17589e+180
-4.67454e+179
-1.19124e+179
-1.01283e+181
-9.05296e+180
-8.11266e+180
-7.21379e+180
-6.11847e+180
-4.76905e+180
-3.39558e+180
-2.00915e+180
-4.91402e+179
-1.13968e+179
-1.0025e+181
-8.86915e+180
-7.89385e+180
-6.95312e+180
-5.75889e+180
-4.39044e+180
-3.03904e+180
-1.84107e+180
-5.81371e+179
-1.29091e+179
-9.81583e+180
-8.62759e+180
-7.65045e+180
-6.63901e+180
-5.3933e+180
-4.05035e+180
-2.83281e+180
-1.71576e+180
-5.47118e+179
-1.21006e+179
-9.69786e+180
-8.40808e+180
-7.36305e+180
-6.25798e+180
-5.0488e+180
-3.80508e+180
-2.64693e+180
-1.52705e+180
-4.47586e+179
-8.15021e+178
-1.18903e+181
-1.07447e+181
-9.80081e+180
-8.62549e+180
-7.25718e+180
-5.91081e+180
-4.53204e+180
-2.81953e+180
-3.68013e+179
-8.3939e+178
-1.16867e+181
-1.0445e+181
-9.41529e+180
-8.08221e+180
-6.78601e+180
-5.59713e+180
-4.39997e+180
-2.96698e+180
-1.13694e+180
-1.72553e+179
-1.12996e+181
-1.01375e+181
-9.0789e+180
-7.82098e+180
-6.54426e+180
-5.38977e+180
-4.28595e+180
-3.01363e+180
-1.49583e+180
-3.5225e+179
-1.09801e+181
-9.95287e+180
-8.88717e+180
-7.63562e+180
-6.34992e+180
-5.31462e+180
-4.28853e+180
-2.94567e+180
-1.45375e+180
-3.68598e+179
-1.07995e+181
-9.80793e+180
-8.77801e+180
-7.64878e+180
-6.43585e+180
-5.27842e+180
-4.07654e+180
-2.69441e+180
-1.09164e+180
-2.51874e+179
-1.06203e+181
-9.58952e+180
-8.55035e+180
-7.55565e+180
-6.41951e+180
-5.16581e+180
-3.86008e+180
-2.40685e+180
-6.26272e+179
-1.5532e+179
-1.05533e+181
-9.42774e+180
-8.39481e+180
-7.39661e+180
-6.24311e+180
-4.91958e+180
-3.57619e+180
-2.15897e+180
-5.12188e+179
-1.24652e+179
-1.06229e+181
-9.28687e+180
-8.16811e+180
-7.12453e+180
-5.92675e+180
-4.59517e+180
-3.29479e+180
-1.99735e+180
-5.54917e+179
-1.25959e+179
-1.051e+181
-9.02184e+180
-7.85549e+180
-6.77453e+180
-5.5679e+180
-4.29311e+180
-3.07539e+180
-1.85343e+180
-5.25376e+179
-1.11574e+179
-1.03e+181
-8.73773e+180
-7.54222e+180
-6.40598e+180
-5.20333e+180
-3.98949e+180
-2.80409e+180
-1.58222e+180
-3.2771e+179
-5.07612e+178
-1.26301e+181
-1.09687e+181
-9.80433e+180
-8.69126e+180
-7.41876e+180
-5.99532e+180
-4.56646e+180
-2.88009e+180
-3.50735e+179
-1.06832e+179
-1.22592e+181
-1.06034e+181
-9.56232e+180
-8.43067e+180
-6.99651e+180
-5.62869e+180
-4.44593e+180
-3.13074e+180
-1.24927e+180
-2.04076e+179
-1.15351e+181
-1.02953e+181
-9.34393e+180
-8.24493e+180
-6.89392e+180
-5.53395e+180
-4.31263e+180
-3.12313e+180
-1.73608e+180
-4.62402e+179
-1.12845e+181
-1.02576e+181
-9.3126e+180
-8.08244e+180
-6.65039e+180
-5.35152e+180
-4.33919e+180
-3.24762e+180
-1.84282e+180
-5.51304e+179
-1.12486e+181
-1.01561e+181
-9.06613e+180
-7.81492e+180
-6.62136e+180
-5.51848e+180
-4.36827e+180
-2.99724e+180
-1.42376e+180
-3.51408e+179
-1.12045e+181
-1.00139e+181
-8.89564e+180
-7.74874e+180
-6.56377e+180
-5.33982e+180
-4.05582e+180
-2.65378e+180
-9.13744e+179
-2.18774e+179
-1.12221e+181
-9.86795e+180
-8.68405e+180
-7.56085e+180
-6.35732e+180
-5.07558e+180
-3.78652e+180
-2.36627e+180
-6.20612e+179
-1.57833e+179
-1.12894e+181
-9.75031e+180
-8.48024e+180
-7.30993e+180
-6.05828e+180
-4.75204e+180
-3.4822e+180
-2.12213e+180
-6.42573e+179
-1.50082e+179
-1.12424e+181
-9.52478e+180
-8.13532e+180
-6.90494e+180
-5.66854e+180
-4.45266e+180
-3.25368e+180
-1.95039e+180
-6.28903e+179
-1.33259e+179
-1.09978e+181
-9.14299e+180
-7.69097e+180
-6.47479e+180
-5.31396e+180
-4.17367e+180
-2.96653e+180
-1.63171e+180
-4.06003e+179
-4.76851e+178
-1.28008e+181
-1.11183e+181
-9.80235e+180
-8.69738e+180
-7.50456e+180
-6.1328e+180
-4.63525e+180
-3.04612e+180
-8.85371e+179
-1.95147e+179
-1.22056e+181
-1.06791e+181
-9.5988e+180
-8.58892e+180
-7.34835e+180
-5.92765e+180
-4.57747e+180
-3.16508e+180
-1.24986e+180
-3.00842e+179
-1.17479e+181
-1.05464e+181
-9.50126e+180
-8.40771e+180
-7.1109e+180
-5.77188e+180
-4.47296e+180
-3.22056e+180
-1.77898e+180
-4.9444e+179
-1.16553e+181
-1.0505e+181
-9.41567e+180
-8.21519e+180
-6.90733e+180
-5.63896e+180
-4.45431e+180
-3.25696e+180
-1.95381e+180
-6.54131e+179
-1.172e+181
-1.0483e+181
-9.24794e+180
-7.9411e+180
-6.68746e+180
-5.59039e+180
-4.53436e+180
-3.29472e+180
-1.75865e+180
-5.19697e+179
-1.18585e+181
-1.04391e+181
-9.10878e+180
-7.86602e+180
-6.67554e+180
-5.50962e+180
-4.29942e+180
-2.93564e+180
-1.47308e+180
-3.55654e+179
-1.20123e+181
-1.03802e+181
-8.96591e+180
-7.72825e+180
-6.49547e+180
-5.22626e+180
-3.93671e+180
-2.53787e+180
-9.13921e+179
-2.22398e+179
-1.21337e+181
-1.02575e+181
-8.74031e+180
-7.44155e+180
-6.1555e+180
-4.86656e+180
-3.59962e+180
-2.22113e+180
-7.06831e+179
-1.81066e+179
-1.21159e+181
-1.00039e+181
-8.33565e+180
-6.9794e+180
-5.73258e+180
-4.53459e+180
-3.31994e+180
-1.99332e+180
-7.03492e+179
-1.60868e+179
-1.17977e+181
-9.52772e+180
-7.79515e+180
-6.49892e+180
-5.3547e+180
-4.23434e+180
-3.00487e+180
-1.64774e+180
-4.66282e+179
-6.52567e+178
-1.30458e+181
-1.14063e+181
-1.00088e+181
-8.7933e+180
-7.48029e+180
-5.97038e+180
-4.51559e+180
-3.19798e+180
-1.67754e+180
-4.20915e+179
-1.23487e+181
-1.08052e+181
-9.70121e+180
-8.65279e+180
-7.39075e+180
-5.91019e+180
-4.55426e+180
-3.26649e+180
-1.6049e+180
-4.27508e+179
-1.192e+181
-1.06511e+181
-9.55434e+180
-8.44914e+180
-7.22141e+180
-5.88082e+180
-4.52903e+180
-3.35847e+180
-2.17613e+180
-6.6069e+179
-1.18277e+181
-1.06199e+181
-9.47461e+180
-8.3325e+180
-7.13487e+180
-5.89232e+180
-4.55219e+180
-3.25133e+180
-2.01131e+180
-7.10933e+179
-1.19451e+181
-1.06815e+181
-9.44297e+180
-8.23669e+180
-6.98973e+180
-5.76463e+180
-4.51057e+180
-3.19276e+180
-1.86754e+180
-6.26669e+179
-1.21878e+181
-1.07165e+181
-9.33799e+180
-8.10707e+180
-6.87498e+180
-5.59327e+180
-4.26764e+180
-2.94982e+180
-1.80526e+180
-6.17377e+179
-1.2405e+181
-1.0727e+181
-9.23394e+180
-7.96328e+180
-6.69325e+180
-5.34399e+180
-3.99842e+180
-2.66053e+180
-1.25237e+180
-3.30253e+179
-1.2602e+181
-1.07008e+181
-9.07178e+180
-7.66546e+180
-6.3109e+180
-4.96272e+180
-3.64322e+180
-2.29498e+180
-9.07183e+179
-2.46582e+179
-1.26897e+181
-1.04376e+181
-8.63383e+180
-7.16587e+180
-5.82655e+180
-4.54184e+180
-3.26321e+180
-1.97572e+180
-8.34016e+179
-2.17309e+179
-1.25048e+181
-9.95768e+180
-7.99851e+180
-6.57237e+180
-5.3369e+180
-4.14141e+180
-2.86341e+180
-1.5854e+180
-5.93272e+179
-1.18594e+179
-1.28942e+181
-1.15825e+181
-1.02967e+181
-8.99641e+180
-7.67624e+180
-6.36167e+180
-4.95581e+180
-3.55236e+180
-2.10119e+180
-6.40032e+179
-1.23513e+181
-1.09817e+181
-9.83934e+180
-8.6838e+180
-7.47027e+180
-6.22933e+180
-4.87185e+180
-3.45118e+180
-2.0006e+180
-5.96012e+179
-1.19823e+181
-1.07836e+181
-9.65562e+180
-8.51201e+180
-7.36605e+180
-6.14448e+180
-4.76752e+180
-3.39908e+180
-2.08764e+180
-7.2905e+179
-1.1942e+181
-1.07337e+181
-9.57296e+180
-8.43022e+180
-7.25328e+180
-6.00824e+180
-4.65578e+180
-3.28284e+180
-2.08698e+180
-8.3478e+179
-1.20533e+181
-1.08181e+181
-9.58853e+180
-8.33667e+180
-7.0686e+180
-5.8005e+180
-4.47464e+180
-3.15549e+180
-2.11904e+180
-1.06775e+180
-1.22438e+181
-1.08352e+181
-9.48181e+180
-8.15974e+180
-6.89685e+180
-5.65841e+180
-4.31952e+180
-2.96707e+180
-1.96734e+180
-8.60253e+179
-1.24971e+181
-1.0901e+181
-9.42683e+180
-8.0465e+180
-6.78316e+180
-5.54879e+180
-4.22803e+180
-2.87462e+180
-1.70237e+180
-5.24033e+179
-1.27794e+181
-1.10039e+181
-9.36676e+180
-7.87259e+180
-6.5248e+180
-5.18792e+180
-3.79691e+180
-2.41973e+180
-1.26137e+180
-3.81245e+179
-1.29146e+181
-1.09145e+181
-9.06308e+180
-7.40437e+180
-5.92759e+180
-4.50602e+180
-3.11267e+180
-1.8665e+180
-9.5967e+179
-3.16544e+179
-1.27022e+181
-1.04909e+181
-8.36164e+180
-6.66437e+180
-5.21091e+180
-3.82238e+180
-2.46428e+180
-1.41933e+180
-7.21681e+179
-2.02351e+179
-1.24703e+181
-1.14973e+181
-1.04638e+181
-9.22313e+180
-7.86687e+180
-6.55927e+180
-5.23858e+180
-3.97722e+180
-2.68963e+180
-9.98255e+179
-1.2172e+181
-1.11395e+181
-9.96781e+180
-8.68327e+180
-7.45963e+180
-6.28081e+180
-4.99975e+180
-3.60752e+180
-2.11716e+180
-6.88534e+179
-1.19628e+181
-1.08875e+181
-9.73059e+180
-8.49035e+180
-7.3154e+180
-6.17362e+180
-4.89731e+180
-3.46271e+180
-2.06274e+180
-7.26151e+179
-1.1985e+181
-1.08333e+181
-9.63837e+180
-8.41112e+180
-7.24137e+180
-6.08862e+180
-4.79681e+180
-3.37927e+180
-2.18106e+180
-9.41072e+179
-1.20299e+181
-1.082e+181
-9.63257e+180
-8.44875e+180
-7.23098e+180
-6.00925e+180
-4.68212e+180
-3.31543e+180
-2.2929e+180
-1.40775e+180
-1.21712e+181
-1.0891e+181
-9.67197e+180
-8.4186e+180
-7.13157e+180
-5.82899e+180
-4.43215e+180
-3.05842e+180
-2.09314e+180
-1.02177e+180
-1.23988e+181
-1.10324e+181
-9.72528e+180
-8.29905e+180
-6.92729e+180
-5.59407e+180
-4.19004e+180
-2.81728e+180
-1.69286e+180
-5.26862e+179
-1.25452e+181
-1.11326e+181
-9.70147e+180
-8.10141e+180
-6.62377e+180
-5.185e+180
-3.72276e+180
-2.36896e+180
-1.31601e+180
-4.46638e+179
-1.26341e+181
-1.10511e+181
-9.40587e+180
-7.62291e+180
-5.98428e+180
-4.39951e+180
-2.8918e+180
-1.71712e+180
-8.96688e+179
-2.6101e+179
-1.23909e+181
-1.06771e+181
-8.7617e+180
-6.91807e+180
-5.22417e+180
-3.61654e+180
-2.21073e+180
-1.23731e+180
-5.45601e+179
-1.22662e+179
-1.22233e+181
-1.13185e+181
-1.02179e+181
-9.01602e+180
-7.7488e+180
-6.39339e+180
-5.02211e+180
-3.78229e+180
-2.63036e+180
-1.21934e+180
-1.20051e+181
-1.1151e+181
-1.00012e+181
-8.70856e+180
-7.39552e+180
-6.10156e+180
-4.77689e+180
-3.46258e+180
-2.16594e+180
-7.72614e+179
-1.19381e+181
-1.10493e+181
-9.82435e+180
-8.48668e+180
-7.19751e+180
-5.96858e+180
-4.64313e+180
-3.25228e+180
-1.94979e+180
-6.84365e+179
-1.20528e+181
-1.10203e+181
-9.66248e+180
-8.32768e+180
-7.07711e+180
-5.8517e+180
-4.50063e+180
-3.12487e+180
-2.06746e+180
-7.70721e+179
-1.2202e+181
-1.09642e+181
-9.61126e+180
-8.35176e+180
-7.08417e+180
-5.78897e+180
-4.39834e+180
-3.03846e+180
-1.89677e+180
-4.23412e+179
-1.23676e+181
-1.09486e+181
-9.62489e+180
-8.32149e+180
-6.99616e+180
-5.63267e+180
-4.18221e+180
-2.77062e+180
-1.65782e+180
-4.48142e+179
-1.24353e+181
-1.09857e+181
-9.65067e+180
-8.21229e+180
-6.80189e+180
-5.38543e+180
-3.90314e+180
-2.48198e+180
-1.41213e+180
-4.15764e+179
-1.23271e+181
-1.09785e+181
-9.65416e+180
-8.10705e+180
-6.60508e+180
-5.09725e+180
-3.55992e+180
-2.16829e+180
-1.15029e+180
-3.1847e+179
-1.23071e+181
-1.0864e+181
-9.40923e+180
-7.71346e+180
-6.01928e+180
-4.26884e+180
-2.60793e+180
-1.41822e+180
-6.59916e+179
-1.11864e+179
-1.20358e+181
-1.06444e+181
-8.99061e+180
-7.11821e+180
-5.26488e+180
-3.46669e+180
-1.99118e+180
-1.046e+180
-3.78234e+179
-2.38031e+178
)
;

boundaryField
{
    inlet
    {
        type            zeroGradient;
    }
    outlet
    {
        type            fixedValue;
        value           uniform 0;
    }
    walls
    {
        type            zeroGradient;
    }
}


// ************************************************************************* //
