/*--------------------------------*- C++ -*----------------------------------*\
| =========                 |                                                 |
| \\      /  F ield         | OpenFOAM: The Open Source CFD Toolbox           |
|  \\    /   O peration     | Version:  2012                                  |
|   \\  /    A nd           | Website:  www.openfoam.com                      |
|    \\/     M anipulation  |                                                 |
\*---------------------------------------------------------------------------*/
FoamFile
{
    version     2.0;
    format      ascii;
    class       surfaceScalarField;
    location    "100";
    object      phi;
}
// * * * * * * * * * * * * * * * * * * * * * * * * * * * * * * * * * * * * * //

dimensions      [0 3 -1 0 0 0 0];
oriented        oriented;


internalField   nonuniform List<scalar> 
2700
(
-2.76446e+88
6.0368e+87
2.11524e+88
-2.31323e+88
-4.17564e+87
-3.49881e+87
-2.07531e+88
4.7782e+85
-5.19471e+86
-2.48616e+88
1.5604e+87
2.44761e+87
-2.58851e+88
-6.62324e+86
6.61815e+86
-2.22952e+88
-1.44106e+87
-1.81136e+86
-2.25931e+88
2.43741e+87
-1.90426e+87
-2.88826e+88
8.18025e+87
-2.50564e+87
-4.86125e+88
1.90787e+88
3.82299e+86
1.16476e+89
3.57916e+89
-5.65097e+87
6.65242e+87
5.25501e+87
-1.29578e+88
3.1746e+87
2.61485e+86
-1.16315e+88
-1.56043e+87
8.06356e+86
-7.3762e+87
-2.27617e+87
-3.22601e+86
-7.04739e+87
7.48365e+86
-8.60519e+86
-1.05758e+88
2.76053e+87
-7.29436e+86
-1.46668e+88
7.5372e+87
-1.79361e+87
-1.66801e+88
1.20359e+88
-2.51106e+87
-1.46191e+88
1.79233e+88
-6.51019e+86
3.46559e+88
8.46783e+87
-7.85049e+86
6.97016e+87
1.53606e+87
-3.61057e+87
4.65896e+87
1.30687e+87
-7.47836e+87
8.44688e+86
1.93269e+87
-1.01319e+88
-6.01405e+86
1.12405e+87
-1.32033e+88
2.58429e+87
1.09546e+87
-1.73929e+88
7.71067e+87
2.84379e+85
-1.79689e+88
9.99896e+87
-2.12568e+87
-1.40313e+88
1.06612e+88
-2.95691e+87
-7.34683e+87
1.36582e+88
-2.33994e+87
1.73038e+88
4.12519e+86
-9.57062e+86
6.37116e+87
1.84121e+87
-5.67454e+87
5.8951e+87
3.30117e+87
-1.49339e+88
7.23279e+87
3.5775e+87
-3.05575e+88
9.69345e+87
5.26639e+87
-3.82095e+88
5.88478e+87
4.25574e+87
-2.97452e+88
7.40835e+86
-3.46594e+86
-1.96931e+88
2.4894e+87
-3.10191e+87
-1.34864e+88
6.81262e+87
-2.75137e+87
-6.85899e+87
9.94516e+87
-2.74891e+87
1.19512e+88
-1.73924e+87
2.11141e+87
4.87282e+87
-4.06539e+86
5.50068e+86
5.99943e+87
1.26699e+87
-2.1768e+87
8.78002e+87
1.60278e+87
-4.6172e+87
1.00754e+88
2.12831e+87
-8.17021e+87
7.91258e+87
1.56897e+87
-1.16933e+88
4.43515e+87
-5.46857e+85
-1.27731e+88
4.4165e+87
-1.06737e+87
-1.16147e+88
7.06151e+87
-1.76854e+87
-7.52003e+87
9.81275e+87
-3.82869e+87
1.09626e+88
-2.86072e+87
3.08506e+86
6.12779e+87
-9.17126e+86
8.99032e+86
6.27099e+87
-1.24284e+87
2.61233e+87
6.55782e+87
1.29617e+87
1.0787e+87
4.71129e+87
6.62329e+87
-1.08419e+87
3.40305e+87
6.55276e+87
-2.22225e+87
2.81922e+87
3.41318e+87
-3.10811e+87
3.91516e+87
1.16587e+87
-3.67141e+87
8.15299e+87
-9.1917e+86
-2.89319e+87
1.38917e+88
-4.77435e+87
1.40151e+88
-4.17542e+87
7.113e+86
2.66554e+87
2.90234e+87
3.82617e+87
2.49228e+86
2.301e+87
6.28415e+87
3.41467e+87
9.49022e+86
5.15292e+87
2.56787e+87
3.06177e+87
3.38188e+87
1.53993e+87
3.82818e+87
2.62608e+87
6.33009e+86
3.26639e+87
2.42211e+87
2.08274e+87
1.74562e+87
1.96132e+86
1.0847e+88
-9.21733e+86
-3.15029e+87
2.33285e+88
-5.88465e+87
1.78363e+88
-5.50661e+87
5.83045e+86
-4.73293e+87
6.82458e+87
3.09638e+87
-7.92491e+87
5.19223e+87
2.93762e+87
9.90677e+85
3.72944e+87
8.41932e+86
-8.0223e+86
5.59696e+87
-4.48531e+87
1.88208e+87
4.48421e+87
-1.39536e+88
8.0265e+87
2.40248e+87
-2.98647e+88
1.3477e+88
4.33842e+87
-3.17577e+88
1.24702e+88
-2.23902e+86
-7.94426e+87
9.93978e+87
-9.73656e+87
1.08092e+88
-7.15315e+87
-2.80481e+88
6.48874e+87
1.70489e+88
-4.17923e+88
-3.25253e+87
1.06637e+88
-4.46317e+88
-2.98151e+87
3.28347e+87
-5.36821e+88
-1.46223e+87
8.92317e+87
-6.00196e+88
5.94217e+86
6.73629e+87
-5.08899e+88
-2.89951e+87
2.00749e+87
-2.39231e+88
-1.07895e+88
-3.18288e+87
3.70495e+87
-9.24515e+87
-5.54321e+87
1.78737e+88
4.35725e+87
-7.55114e+87
1.17385e+88
-5.75376e+87
-1.46701e+88
2.04288e+88
-1.74832e+88
3.74512e+87
-2.1895e+88
1.13375e+87
-2.65678e+88
2.82139e+87
-2.74831e+88
1.83671e+87
-3.16301e+88
1.44105e+87
-4.33778e+88
1.15201e+87
-4.95819e+88
-2.29416e+87
-2.59234e+88
-1.78601e+88
-1.12331e+88
2.25194e+87
9.78099e+87
1.59283e+88
-9.22938e+87
3.11463e+87
4.64888e+87
-1.91244e+88
4.57806e+87
5.5648e+87
-2.1832e+88
1.98652e+87
4.14885e+87
-1.61351e+88
-2.06472e+86
-4.40854e+87
-1.20283e+88
1.10481e+87
-5.20794e+87
-1.44555e+88
4.24034e+87
-4.30088e+87
-2.23701e+88
7.72386e+87
-2.61595e+87
-3.84038e+88
1.67205e+88
-5.42313e+86
5.86894e+88
8.88233e+88
9.31198e+86
6.0921e+87
7.51939e+87
-1.29402e+87
3.92302e+87
3.2664e+87
-7.08764e+86
3.85852e+87
1.7749e+87
-5.2127e+86
1.85548e+87
-1.03168e+87
-2.29647e+87
3.69544e+87
-2.68966e+87
-4.54642e+87
5.23412e+87
-2.58074e+87
-8.46645e+87
7.56237e+87
-1.91342e+87
-1.30767e+88
1.00492e+88
-6.07475e+86
-1.11423e+88
1.40361e+88
1.6295e+86
2.40671e+88
7.51907e+87
-2.41848e+87
6.28936e+87
4.58687e+87
-3.61502e+87
3.82061e+87
3.20317e+87
-3.25063e+87
3.31196e+87
2.21235e+87
-3.7902e+87
2.23486e+87
9.4961e+86
-2.55551e+87
5.11763e+87
-9.29252e+86
-3.06741e+87
7.31311e+87
-1.32783e+87
-5.81501e+87
8.36134e+87
-5.6184e+86
-9.18799e+87
9.23445e+87
1.32092e+87
-9.9042e+87
1.07243e+88
2.04721e+87
1.33303e+88
1.83566e+87
9.97566e+86
2.8906e+87
4.24091e+87
1.52756e+87
1.71485e+87
5.35678e+87
-3.95895e+87
6.35681e+87
6.20909e+87
-1.01243e+88
8.64426e+87
4.9269e+87
-7.6937e+87
6.86858e+87
7.70442e+86
-5.75261e+87
5.33525e+87
-3.39772e+86
-6.6787e+87
6.06164e+87
-3.02809e+86
-8.92769e+87
7.23378e+87
1.55841e+87
-1.03904e+88
7.24019e+87
2.72859e+87
8.21253e+87
6.72454e+86
-5.86158e+87
1.91936e+87
6.48764e+87
-3.32101e+87
-3.22219e+87
4.51353e+87
6.32451e+86
2.25191e+87
2.37354e+87
-2.43193e+86
1.04433e+88
1.19078e+87
-2.12234e+87
1.03622e+88
2.75744e+86
-3.71727e+87
7.09944e+87
2.8472e+86
-5.95659e+87
6.95346e+87
-7.63515e+85
-8.17005e+87
7.95945e+87
-3.75982e+86
-1.13564e+88
8.02011e+87
-1.06393e+87
7.68065e+87
-1.17953e+87
-1.60074e+88
9.61118e+87
7.74026e+87
-3.77366e+88
9.27023e+87
8.34611e+87
-4.98799e+88
3.84073e+87
1.2396e+88
-4.01748e+88
-1.39401e+87
8.17988e+87
-2.26257e+88
-2.66209e+87
2.27669e+87
-1.06296e+88
-1.61553e+87
8.91454e+86
-4.14109e+87
1.805e+87
-6.07241e+86
-2.48634e+87
7.30529e+87
-2.16769e+87
-6.31876e+87
1.20376e+88
-4.67158e+87
1.21103e+88
-4.0903e+87
1.9934e+87
3.85841e+87
6.40334e+87
7.99731e+87
2.14234e+87
3.28969e+87
1.01278e+88
6.67067e+86
1.79687e+87
6.39013e+87
2.20141e+87
3.45023e+87
1.25699e+87
1.19668e+87
5.34666e+87
-7.14681e+86
-2.11796e+87
5.9219e+87
1.454e+87
-2.16263e+87
3.08001e+87
1.58785e+87
7.71057e+87
-1.69117e+87
-1.81925e+87
1.60773e+88
-5.96691e+87
1.47038e+88
-6.01501e+87
-2.22715e+87
2.32315e+87
9.88945e+87
-1.85616e+87
1.4978e+87
5.18144e+87
1.12666e+87
-2.40199e+87
4.39952e+87
8.41372e+87
-3.0921e+87
2.76552e+87
7.69646e+87
1.56273e+87
4.83575e+87
-3.62332e+87
4.54657e+87
7.16689e+87
-1.3857e+88
5.03451e+87
7.02925e+87
-9.92162e+87
5.80345e+87
-1.54495e+87
-2.32245e+87
8.77543e+87
-8.91573e+87
1.06289e+88
-7.3509e+87
3.11146e+87
4.445e+87
1.15816e+88
3.66088e+87
2.23867e+87
8.81215e+87
-5.53216e+87
-6.9351e+85
9.30459e+87
-6.35602e+87
-1.41506e+87
8.04436e+87
-5.37786e+87
1.86262e+87
5.39062e+87
-8.16608e+87
3.93931e+87
5.44372e+87
-1.06097e+88
2.30125e+87
2.22442e+87
-9.09297e+87
1.73363e+87
-2.3083e+87
-4.91214e+87
6.90291e+87
-8.97686e+87
8.44797e+87
-8.11849e+87
7.00002e+87
1.462e+88
5.73048e+87
7.75107e+87
6.74746e+86
6.16911e+87
-3.34125e+87
5.38333e+87
-3.85544e+87
4.08466e+87
-1.51171e+87
3.16922e+87
1.25488e+87
1.19936e+87
3.73658e+87
-2.10724e+87
3.66117e+87
-9.97669e+87
-8.81954e+87
2.5445e+87
6.62841e+87
6.93314e+87
-5.46763e+87
4.17331e+87
8.02787e+87
-7.11772e+87
3.81553e+87
4.20904e+87
-5.32556e+87
3.42912e+87
-9.41021e+86
-7.33973e+87
2.12216e+87
-4.74468e+87
-8.89135e+87
2.35632e+87
-5.92447e+87
-1.22436e+88
4.26166e+87
-5.54061e+87
-1.813e+88
7.44068e+87
-4.56275e+87
-2.79948e+88
1.46504e+88
-5.52992e+87
2.23508e+88
2.49472e+88
2.90961e+87
4.98622e+87
6.25509e+87
1.81143e+87
4.83084e+87
4.27638e+87
8.3582e+86
4.93832e+87
1.26311e+87
-4.8943e+86
4.42619e+87
-1.39336e+87
-2.45701e+87
3.89532e+87
-2.46176e+87
-5.18946e+87
3.84062e+87
-1.31057e+87
-9.52233e+87
5.29153e+87
9.02473e+86
-1.40351e+88
8.47883e+87
2.5312e+87
-1.33309e+88
1.3605e+88
5.80666e+86
1.60043e+88
-4.94963e+86
2.02802e+87
2.14125e+87
6.29784e+87
2.12713e+87
3.66022e+87
3.83844e+87
1.28129e+87
5.55568e+87
2.52906e+87
-8.05573e+86
5.67894e+87
1.81538e+87
-4.31871e+87
5.64289e+87
1.20631e+87
-9.87103e+87
6.02122e+87
2.27633e+87
-1.69639e+88
5.54816e+87
5.90812e+87
-2.05555e+88
5.62501e+87
7.82002e+87
-1.8044e+88
8.82684e+87
4.9651e+87
1.00647e+88
2.7362e+86
-9.57031e+87
6.24295e+87
1.00222e+88
-9.62208e+87
2.15409e+87
6.69383e+87
-4.47665e+87
3.33634e+87
3.95394e+87
-3.08153e+87
6.75006e+87
2.42221e+87
-4.45297e+87
7.35014e+87
7.98139e+86
-8.86933e+87
6.46773e+87
3.84426e+87
-1.73279e+88
6.17676e+87
7.17081e+87
-2.19617e+88
5.02695e+87
7.00425e+87
-1.68064e+88
3.15195e+87
4.07708e+87
5.17707e+87
5.99585e+85
5.09926e+87
2.73821e+87
5.55522e+87
6.01811e+87
-7.95137e+86
6.90426e+87
7.23468e+87
-9.24057e+86
5.67486e+87
5.70528e+87
7.20614e+87
2.23625e+87
4.39371e+87
8.70942e+87
6.89296e+86
3.22648e+87
7.07645e+87
1.09478e+87
2.67266e+86
6.85599e+87
1.92762e+87
-3.72722e+87
6.72945e+87
1.97814e+87
-6.3651e+87
5.02597e+87
6.5171e+85
3.83872e+87
-1.76376e+86
-6.40994e+87
6.79634e+87
1.02967e+88
-2.30211e+88
7.02961e+87
1.68737e+88
-2.80811e+88
-6.88998e+86
1.66364e+88
-1.23148e+88
-2.77539e+87
3.14232e+87
-1.63035e+87
1.11796e+87
-6.41931e+86
3.41362e+87
3.50038e+87
-2.87046e+86
4.08227e+87
5.62972e+87
-3.54959e+86
1.83672e+87
7.61453e+87
-9.84614e+86
-5.69996e+87
1.03709e+88
-2.28644e+87
9.63163e+87
-2.25308e+86
-5.15158e+87
6.66982e+87
1.19273e+88
-9.86484e+87
2.49406e+87
1.24714e+88
-1.61968e+88
-1.58316e+87
9.48599e+87
-1.81751e+88
-2.73221e+87
5.08742e+87
-1.11587e+88
-2.25628e+87
1.10703e+87
-1.86792e+87
2.76544e+86
3.98988e+86
4.39738e+87
2.68368e+87
-3.65221e+86
4.8552e+87
7.04437e+87
-1.6637e+87
1.93527e+87
1.13717e+88
-3.70999e+87
1.15128e+88
-3.09496e+87
1.18098e+87
3.78733e+87
1.26876e+88
1.47556e+86
-2.85483e+86
8.12672e+87
5.57524e+86
-3.06165e+87
5.31079e+87
-6.3982e+86
-7.65807e+86
1.90016e+87
6.89483e+86
-1.62192e+86
1.26334e+87
5.14007e+87
2.21745e+87
1.05151e+87
8.35059e+87
5.0717e+87
1.39742e+87
7.87345e+87
7.06903e+87
-9.02946e+86
5.65964e+87
8.96345e+87
-3.98278e+87
8.99515e+87
-4.00121e+87
-9.09034e+87
7.68293e+87
1.75316e+88
-1.38242e+88
-1.13344e+86
1.32552e+88
-8.05364e+87
-4.94791e+87
5.97303e+87
2.19146e+87
-4.20341e+87
1.2438e+87
6.93457e+87
-7.11765e+86
1.01787e+87
1.07897e+88
2.74147e+87
1.39319e+87
1.25706e+88
4.60054e+87
1.22054e+87
1.336e+88
5.35111e+87
-1.04057e+87
9.63268e+87
7.78901e+87
-3.78313e+87
6.50563e+87
-4.38579e+87
4.98927e+87
1.75244e+88
3.22313e+87
1.02628e+88
-8.79449e+86
4.80725e+87
-2.18292e+87
2.76318e+87
-4.3383e+86
1.7581e+87
3.99318e+87
1.85622e+87
9.45006e+87
7.16754e+86
1.48579e+88
-1.96411e+87
1.81087e+88
-5.16045e+87
-5.68472e+87
-1.00823e+88
7.64643e+87
9.59059e+87
-1.25322e+88
9.51051e+86
9.01471e+87
-8.30298e+87
4.17717e+86
-2.98132e+86
-8.56843e+87
-1.81172e+87
3.42982e+86
-1.03783e+88
-5.12433e+87
1.58752e+87
-1.14993e+88
-3.84801e+87
-6.45999e+86
-1.62223e+88
1.73022e+87
-2.8235e+87
-2.64017e+88
8.11413e+87
-2.96272e+87
-4.60809e+88
1.77891e+88
-3.88799e+87
2.51694e+88
9.21689e+87
3.24137e+87
5.44303e+87
4.98477e+87
1.41037e+87
3.53141e+87
3.40036e+87
-3.42416e+87
3.49206e+87
2.58455e+87
-1.49731e+88
2.84729e+87
4.78348e+87
-2.70505e+88
-2.25507e+86
4.78536e+87
-3.09919e+88
-2.2654e+87
1.13832e+87
-3.10701e+88
1.96868e+87
-3.20537e+86
-2.95888e+88
7.82264e+87
8.3107e+86
-2.06973e+88
1.26265e+88
-2.81517e+87
1.17574e+88
-2.62466e+87
4.6302e+87
3.81191e+87
3.37606e+87
2.41827e+87
5.08655e+87
4.32472e+87
-3.77835e+87
5.06098e+87
7.25218e+87
-1.29026e+88
4.50971e+87
9.29717e+87
-2.27973e+88
2.21881e+87
8.69616e+87
-3.07725e+88
3.25776e+87
4.49876e+87
-3.20376e+88
7.12501e+87
1.16165e+87
-2.56874e+88
5.82063e+87
3.56111e+87
-1.51408e+88
5.64397e+87
2.14049e+87
6.02481e+87
-2.2506e+87
4.22316e+87
3.81099e+87
5.97392e+87
3.84334e+87
4.43001e+87
7.72544e+87
2.04857e+86
5.48662e+87
7.39414e+87
-6.67734e+87
7.59113e+87
6.07838e+87
-1.75207e+88
8.52309e+87
5.39355e+87
-1.7797e+88
5.44098e+87
1.85281e+87
-8.78291e+87
2.81148e+87
2.07074e+87
-3.77754e+87
3.46226e+87
4.68397e+87
-1.13568e+85
2.73014e+87
3.79129e+87
3.4798e+87
-7.08801e+85
-3.82727e+87
3.39449e+87
9.42548e+87
-3.0085e+87
1.63565e+87
8.87825e+87
1.08852e+87
2.49514e+87
5.48746e+87
1.98141e+87
6.11951e+87
2.59554e+87
1.10738e+87
7.13175e+87
3.08519e+87
-1.37911e+87
5.75843e+87
3.37272e+87
-4.8602e+87
4.59785e+87
3.28666e+87
-6.28305e+87
4.00516e+87
2.66566e+87
-7.98446e+87
2.85243e+87
1.84051e+87
1.91733e+87
7.45222e+86
-6.69064e+87
7.07728e+87
1.38824e+88
-3.61489e+87
2.99246e+87
1.25683e+88
5.84874e+87
3.14965e+87
6.61828e+87
8.08054e+87
4.48045e+87
2.26319e+87
8.76702e+87
5.13987e+87
9.65472e+86
8.95654e+87
4.83831e+87
7.14204e+86
7.59272e+87
4.91296e+87
4.34656e+86
4.37451e+87
5.69296e+87
3.77464e+86
-1.78567e+87
7.17511e+87
-3.4756e+86
5.87062e+87
1.30477e+87
-6.39874e+87
1.01038e+88
1.53829e+88
-7.01316e+87
3.65204e+87
1.21261e+88
-8.24352e+86
1.03948e+87
6.18165e+87
4.42854e+87
1.61162e+87
2.20371e+87
7.64589e+87
2.58659e+87
4.75055e+86
9.66593e+87
3.35887e+87
3.14478e+86
9.62684e+87
4.33145e+87
2.40806e+86
7.92605e+87
6.24665e+87
-6.32312e+86
5.17696e+87
8.5564e+87
-2.15679e+87
8.30124e+87
-9.07596e+86
4.26344e+87
6.74697e+87
1.16725e+88
5.44645e+87
1.93743e+87
8.52185e+87
6.56207e+87
3.85216e+86
5.10554e+87
6.99842e+87
3.9917e+86
2.30741e+87
8.35529e+87
1.651e+87
6.65336e+86
9.59375e+87
2.99857e+87
5.31521e+86
1.03902e+88
4.43325e+87
5.37597e+86
1.04704e+88
6.04089e+87
-8.9352e+86
9.31722e+87
7.69162e+87
-1.96849e+87
7.19729e+87
-1.75913e+87
3.58147e+87
6.54037e+87
1.46024e+88
7.15381e+87
1.44944e+87
1.05166e+88
8.45183e+87
-3.58902e+86
5.16651e+87
8.80356e+87
-6.13381e+86
1.82021e+87
1.00978e+88
7.01463e+86
6.91075e+86
1.13901e+88
2.22914e+87
1.302e+87
1.27824e+88
3.33619e+87
1.14754e+87
1.4168e+88
4.49561e+87
-8.91025e+86
1.34271e+88
6.26368e+87
-1.69235e+87
4.73414e+87
-1.95161e+87
5.56674e+87
1.859e+88
7.62488e+87
1.03494e+88
8.14426e+87
3.64408e+87
9.19558e+87
1.22628e+87
1.05394e+88
1.44553e+87
1.26565e+88
2.37504e+87
1.59063e+88
9.8751e+86
1.97392e+88
-1.28992e+87
2.28264e+88
-1.93253e+87
-3.1398e+87
-1.17879e+87
6.12004e+87
4.7936e+87
-3.10423e+87
3.69289e+87
6.96652e+87
-8.0368e+87
2.9577e+87
1.64845e+87
-1.10682e+88
1.42431e+87
1.20495e+87
-1.20351e+88
-1.13018e+87
3.14555e+87
-1.24721e+88
-3.15414e+87
3.08865e+87
-1.56043e+88
-1.01823e+87
7.53811e+86
-2.75406e+88
6.4897e+87
1.89719e+87
-5.39007e+88
1.44377e+88
7.83812e+87
2.8509e+88
2.94981e+88
5.86676e+87
2.69622e+87
1.87946e+87
7.21705e+87
1.94436e+87
3.96367e+87
6.94797e+87
2.04247e+87
3.25392e+87
3.65491e+87
3.65412e+87
5.1789e+87
-4.78575e+87
4.4722e+87
7.63179e+87
-1.83364e+88
3.57965e+87
7.4136e+87
-2.43928e+88
2.24505e+86
3.3284e+87
-2.10478e+88
4.18127e+87
-6.35153e+86
-1.73825e+88
1.03939e+88
-2.17791e+87
9.96351e+87
3.75011e+87
-2.9028e+87
4.41579e+87
4.67747e+87
-1.06398e+88
5.93956e+87
7.69226e+87
-1.30477e+88
5.86464e+87
5.874e+87
-9.37928e+87
3.94373e+87
4.65592e+87
-4.00269e+87
2.45206e+87
5.14365e+87
-3.51589e+87
2.45968e+87
4.7267e+87
-1.2725e+88
5.58988e+87
4.35544e+87
-1.69471e+88
8.8856e+87
3.03825e+87
-9.51917e+87
6.08226e+87
-4.95857e+86
5.05094e+87
-2.55079e+87
-3.95735e+87
6.79752e+87
7.48124e+87
-2.4008e+87
4.57531e+87
7.20623e+87
4.80079e+87
3.04999e+87
3.07777e+87
7.92588e+87
3.69581e+87
2.93338e+87
5.56503e+87
6.03927e+87
4.1082e+87
-3.6304e+87
7.98199e+87
5.41524e+87
-6.92056e+87
6.23472e+87
4.30547e+87
1.34753e+87
3.51592e+87
1.50769e+87
6.53652e+87
2.93639e+87
1.95999e+87
3.69625e+87
2.21198e+86
1.11045e+87
6.91259e+87
8.61535e+87
2.87178e+87
4.70661e+87
7.04219e+87
3.3126e+87
4.7004e+87
3.70816e+87
-1.5031e+86
6.38158e+87
2.94048e+87
2.80654e+86
6.16499e+87
2.37131e+87
4.66963e+87
4.51466e+87
2.75658e+87
6.15946e+87
3.37519e+87
4.21001e+87
4.80862e+87
3.17544e+87
4.16518e+87
3.64306e+87
2.3357e+87
3.68057e+87
1.77006e+87
1.79071e+87
1.01614e+87
8.43264e+87
1.16902e+88
4.83925e+87
4.77897e+87
8.49089e+87
8.95425e+87
3.81998e+87
3.62581e+87
1.02122e+88
4.74605e+87
2.18144e+87
1.05205e+88
4.7834e+87
2.15732e+87
8.95227e+87
4.26255e+87
2.82395e+87
4.60608e+87
4.18788e+87
3.66186e+87
4.14647e+86
4.18966e+87
3.15583e+87
-6.79944e+87
5.09886e+87
4.0673e+87
3.80124e+87
2.91903e+87
1.2602e+87
9.38033e+87
1.33053e+88
4.51663e+87
4.63646e+87
8.51842e+87
7.79763e+87
3.01306e+87
3.98752e+87
9.12053e+87
3.03918e+87
2.09236e+87
1.00221e+88
3.09978e+87
1.24291e+87
1.11401e+88
3.01177e+87
9.45005e+86
1.13799e+88
3.6031e+87
4.87015e+86
9.92103e+87
4.87066e+87
-9.4926e+85
5.41101e+87
7.55622e+87
-4.45955e+85
7.02775e+87
8.53795e+86
2.16936e+86
7.91313e+87
1.27234e+88
1.70478e+87
2.60311e+87
8.28939e+87
5.83829e+87
2.98901e+86
4.0823e+87
8.73445e+87
2.47856e+86
1.87656e+87
1.02789e+88
1.18837e+87
9.42716e+86
1.11569e+88
2.14745e+87
8.66384e+86
1.10452e+88
3.64246e+87
5.66733e+86
1.0051e+88
5.05831e+87
-3.89704e+86
9.93945e+87
7.1275e+87
-1.61612e+87
6.60447e+87
-1.02729e+87
2.43899e+87
6.05537e+87
1.43075e+88
6.3751e+87
1.13888e+87
8.12717e+87
8.83522e+87
-9.42069e+86
3.91284e+87
9.96035e+87
-1.02269e+87
1.90613e+87
1.02295e+88
2.85362e+86
1.42798e+87
1.09939e+88
1.52421e+87
1.60136e+87
1.21605e+88
2.77644e+87
8.80781e+86
1.31513e+88
3.4368e+87
-5.08186e+86
1.44304e+88
5.25178e+87
-1.36944e+87
4.71133e+87
-1.49206e+87
6.72447e+87
1.78311e+88
1.12141e+88
7.61774e+87
1.07659e+88
3.07678e+87
9.47199e+87
1.51504e+87
1.00796e+88
1.42694e+87
1.29024e+88
1.30557e+87
1.63697e+88
1.91455e+86
1.91224e+88
-7.84403e+86
2.38922e+88
-1.55073e+87
-2.13017e+87
-4.47368e+87
6.09224e+86
8.28843e+87
-8.71014e+87
1.38935e+87
9.42944e+87
-1.50594e+88
5.92265e+86
7.57369e+87
-2.20717e+88
1.93474e+87
5.25081e+87
-2.17285e+88
6.26488e+86
1.26215e+87
-1.55358e+88
-8.64009e+86
-2.18831e+87
-1.29236e+88
2.21425e+84
-2.53172e+87
-1.9528e+88
2.09665e+87
5.81174e+87
-3.87345e+88
4.71955e+87
2.22011e+88
1.019e+88
2.10573e+88
-3.02199e+87
1.46379e+86
5.03081e+87
-7.57766e+87
4.52648e+87
5.46962e+87
-1.37533e+88
3.54894e+87
5.75168e+87
-1.38441e+88
1.9217e+87
4.15316e+87
-1.07205e+88
1.7541e+87
3.04909e+87
-8.27077e+87
2.12286e+87
1.56433e+87
-7.41482e+87
1.21406e+87
3.90957e+86
-1.14703e+88
2.82899e+87
2.36128e+87
-2.09446e+88
6.8823e+87
5.33261e+87
8.08686e+87
8.05746e+87
-4.64952e+87
5.09237e+87
4.85551e+87
-2.53549e+87
5.0307e+87
4.28345e+87
-7.53913e+86
3.81547e+87
3.30651e+87
-2.53141e+86
2.69227e+87
3.05406e+87
8.92443e+84
2.44024e+87
3.94118e+87
2.42113e+86
2.8425e+87
3.67023e+87
-1.21728e+87
4.00648e+87
2.62495e+87
-4.74742e+87
4.8287e+87
4.56638e+87
-7.95065e+87
5.05972e+87
4.88254e+87
5.11996e+87
7.893e+86
1.88782e+85
7.61313e+87
4.79197e+87
2.98103e+87
5.28959e+87
3.83767e+87
3.936e+87
3.18987e+87
2.97702e+87
3.56614e+87
1.66024e+87
3.82963e+87
3.12679e+87
1.13282e+87
5.66701e+87
2.42648e+87
3.58687e+87
5.38588e+87
3.54103e+86
6.74472e+87
3.2087e+87
-1.03291e+87
6.17768e+87
1.38122e+87
1.41059e+87
3.14401e+87
1.70747e+87
3.94579e+87
5.56527e+86
1.92233e+87
8.96787e+87
5.27817e+87
3.5519e+87
5.63616e+87
4.88811e+87
1.44067e+87
4.32289e+87
4.79715e+87
-5.44266e+87
5.05738e+87
5.80078e+87
-1.46473e+88
5.58587e+87
6.91627e+87
-1.67919e+88
3.52436e+87
5.32402e+87
-8.41699e+87
1.0274e+87
8.92353e+86
-4.61654e+86
1.91103e+87
3.45249e+83
1.68572e+87
3.49859e+87
1.4508e+87
4.7513e+87
1.15386e+87
4.79563e+87
9.41446e+87
6.47569e+87
7.26307e+87
5.95309e+87
5.33086e+87
5.79933e+87
4.89028e+87
4.63078e+87
2.73562e+87
4.76763e+87
4.92231e+87
2.07251e+87
3.84338e+87
4.41081e+87
2.92945e+87
2.58469e+87
3.02719e+87
3.39631e+87
2.03324e+87
1.82697e+87
4.37213e+87
2.25108e+87
1.66765e+87
7.10705e+87
1.46358e+87
3.5519e+87
3.40143e+87
9.00882e+86
6.46479e+87
8.99062e+87
7.05667e+87
9.98765e+87
5.17548e+87
5.4643e+87
1.08096e+88
3.95233e+87
4.28884e+87
1.04637e+88
3.24724e+87
3.46983e+87
1.04275e+88
2.72267e+87
2.46218e+87
1.05508e+88
2.51838e+87
1.36328e+87
9.62751e+87
2.92968e+87
5.30863e+86
7.7607e+87
3.46343e+87
4.61215e+86
3.18495e+87
4.81826e+87
1.34239e+87
4.74216e+87
1.91769e+87
6.32656e+87
7.91207e+87
7.42964e+87
8.85371e+87
4.04945e+87
6.35262e+87
1.03859e+88
1.92627e+87
4.66246e+87
1.10587e+88
8.97387e+86
3.19284e+87
1.14492e+88
1.03418e+87
2.17277e+87
1.19047e+88
1.79732e+87
1.45474e+87
1.17282e+88
2.87872e+87
7.50055e+86
1.03851e+88
3.95412e+87
2.51137e+86
6.71936e+87
6.57646e+87
2.09156e+86
5.77913e+87
1.13552e+87
7.93231e+87
5.7421e+87
8.69199e+87
1.05988e+88
2.3604e+87
6.90922e+87
1.05205e+88
1.43617e+86
5.81122e+87
9.70459e+87
-7.80052e+86
4.34559e+87
9.44487e+87
-7.8363e+85
2.86836e+87
1.02832e+88
1.32879e+87
1.56703e+87
1.12625e+88
2.49165e+87
2.21858e+86
1.18658e+88
2.81675e+87
-1.50028e+86
1.22229e+88
4.53087e+87
1.81299e+86
4.15143e+87
-2.06366e+86
1.05251e+88
1.27091e+88
1.3761e+88
6.8271e+87
1.19475e+88
5.03807e+87
9.24773e+87
3.46933e+87
9.62859e+87
1.26762e+87
1.30037e+88
-6.40175e+86
1.68838e+88
-1.29359e+87
1.98729e+88
-9.72303e+86
2.32619e+88
-2.95281e+86
-9.36306e+86
2.8525e+87
1.30378e+87
4.66378e+87
3.35835e+87
8.73797e+86
7.74268e+87
4.93926e+86
1.23142e+87
9.09801e+87
-6.46717e+87
3.89949e+87
7.96534e+87
-1.49267e+88
2.57908e+87
6.78373e+87
-2.82579e+88
1.43687e+87
9.51556e+87
-4.76249e+88
2.28538e+87
1.37787e+88
-6.04453e+88
3.38984e+87
1.40816e+88
-4.87365e+88
-1.68691e+87
1.19496e+88
1.04123e+87
7.41825e+87
-2.51804e+86
2.60838e+87
3.70127e+87
-4.63063e+87
4.33343e+87
6.25647e+87
-7.50783e+87
2.75916e+87
6.79154e+87
-5.32728e+87
1.17886e+87
4.09245e+87
-6.04711e+87
1.6337e+87
4.29195e+87
-1.44983e+88
3.36423e+87
7.66548e+87
-2.2978e+88
1.93594e+87
8.16828e+87
-2.83202e+88
5.14146e+87
5.48337e+87
-4.26925e+88
1.09249e+88
7.58423e+87
1.04207e+88
7.64543e+87
-1.14682e+87
5.34139e+87
3.42133e+87
-2.83603e+87
5.22569e+87
4.86634e+87
-5.15726e+87
3.94631e+87
4.77286e+87
-8.32591e+87
2.82939e+87
4.31426e+87
-1.15002e+88
2.87205e+87
5.56793e+87
-1.58856e+88
4.62077e+87
6.78414e+87
-2.29874e+88
4.59275e+87
6.58684e+87
-1.71392e+88
9.34201e+86
2.92753e+87
-1.76555e+87
6.55577e+86
5.3129e+86
3.97074e+87
1.42442e+87
-2.43786e+87
8.41663e+87
3.96897e+87
-3.92897e+87
6.57964e+87
3.90666e+87
-5.48891e+87
4.75712e+87
4.17289e+87
-6.90763e+87
3.66757e+87
3.98229e+87
-5.62463e+87
2.63532e+87
4.3501e+87
-2.93347e+87
3.50762e+87
3.71034e+87
-3.74438e+87
4.76628e+87
3.40378e+87
-8.04714e+87
4.58104e+87
2.3069e+87
-1.14059e+88
3.2711e+87
3.06996e+87
3.85315e+87
2.63932e+87
-6.67049e+86
1.05428e+88
3.83847e+87
-3.31349e+86
6.6354e+87
4.3264e+87
9.46266e+86
3.95912e+87
4.39121e+87
2.6774e+87
4.07302e+87
3.15299e+87
4.92683e+87
4.55443e+87
2.61852e+87
6.97516e+87
4.47027e+87
1.9604e+87
6.92251e+87
4.18394e+87
1.06596e+87
6.91892e+87
3.91675e+87
7.48727e+86
1.5638e+87
5.45708e+87
5.11374e+87
6.44119e+87
5.28163e+87
3.76287e+87
1.02299e+88
3.14935e+87
4.77479e+87
6.70998e+87
4.04483e+87
4.61834e+87
4.53505e+87
4.42597e+87
6.00688e+87
4.12028e+87
2.98253e+87
8.08436e+87
4.3018e+87
2.50803e+87
8.55413e+87
3.94877e+87
3.43564e+87
7.5158e+87
3.57319e+87
3.37407e+87
7.49495e+87
2.70844e+87
2.73001e+87
9.21153e+87
-1.30095e+86
7.72695e+87
9.16346e+86
4.11139e+87
3.65402e+87
9.95632e+87
3.65132e+87
4.9124e+87
6.00751e+87
4.57636e+87
5.6556e+87
4.05388e+87
4.52499e+87
7.61077e+87
2.6976e+87
2.50438e+87
9.43397e+87
2.5322e+87
2.45745e+87
9.06132e+87
2.45627e+87
3.79584e+87
7.22014e+87
2.15161e+87
3.88943e+87
5.4571e+87
1.61305e+87
3.35647e+87
2.80957e+86
1.99842e+87
4.83571e+87
2.22816e+87
3.3519e+87
3.73727e+87
8.94473e+87
4.65351e+87
6.59102e+87
3.32289e+87
5.44202e+87
1.01885e+88
5.8842e+86
4.75334e+87
1.19209e+88
4.18071e+86
3.56299e+87
1.2172e+88
1.00718e+87
3.39762e+87
1.14982e+88
1.38839e+87
3.43263e+87
9.78388e+87
1.61468e+87
2.9803e+87
7.16009e+87
2.06462e+87
2.42763e+87
5.11969e+86
5.10834e+87
3.9787e+87
4.98595e+87
3.54279e+87
5.1491e+87
7.46014e+87
5.32411e+87
4.65043e+87
2.6939e+87
7.84121e+87
6.00779e+87
-2.11059e+87
7.35603e+87
9.05214e+87
-3.07583e+87
4.96399e+87
1.0978e+88
-1.29443e+87
3.3501e+87
1.16333e+88
4.92634e+86
2.01101e+87
1.12299e+88
1.64431e+87
6.07332e+86
1.11951e+88
1.62342e+87
4.63712e+86
1.11641e+88
3.61543e+87
2.04319e+87
4.08924e+87
1.73249e+87
1.43087e+88
5.80709e+87
1.64403e+88
7.58751e+87
1.24716e+88
6.82029e+87
9.20945e+87
4.05703e+87
9.26217e+87
3.99958e+86
1.21764e+88
-2.89052e+87
1.66222e+88
-4.05951e+87
1.98943e+88
-2.46393e+87
2.09894e+88
2.49527e+87
8.33249e+86
4.0195e+87
2.33277e+87
-1.50633e+87
6.34233e+87
4.61362e+86
4.83049e+87
6.71114e+87
3.18763e+86
8.53771e+87
3.62113e+87
2.76297e+87
8.16771e+87
2.53429e+86
2.36962e+87
7.46016e+87
-8.01058e+86
2.8793e+87
7.36159e+87
-7.28237e+84
3.64096e+87
8.5458e+87
1.4483e+87
3.37488e+87
8.9415e+87
4.42444e+87
2.58293e+87
6.49246e+87
2.30443e+87
3.14012e+87
1.43408e+87
3.38797e+87
1.22386e+87
-2.29329e+87
3.85056e+87
6.68549e+87
-4.91935e+87
2.99749e+87
6.46328e+87
-5.57355e+87
2.94299e+87
4.09951e+87
-6.33649e+87
3.15311e+87
3.52285e+87
-4.30777e+87
3.11237e+87
4.56954e+87
-1.39062e+87
2.65038e+87
5.28882e+87
-1.17869e+87
3.20767e+87
5.15504e+87
3.92336e+86
4.64579e+87
4.06961e+87
4.66785e+87
2.6073e+87
-1.92024e+87
6.28296e+87
2.83119e+87
-3.98643e+87
5.40802e+87
5.16994e+87
-5.41439e+87
4.57283e+87
4.77428e+87
-5.51487e+87
4.40621e+87
2.84453e+87
-2.26185e+87
3.09348e+87
1.93285e+87
6.75719e+86
2.93971e+87
3.52975e+87
1.60063e+87
3.13882e+87
4.81581e+87
1.23095e+87
3.10421e+87
3.70941e+87
-9.67675e+85
4.48457e+87
2.43818e+87
5.48491e+87
2.12204e+87
-8.51321e+86
8.12118e+87
3.17943e+87
-3.10654e+87
7.26561e+87
4.19995e+87
-3.78217e+87
5.71258e+87
3.86569e+87
-1.70661e+87
3.93804e+87
2.16949e+87
5.49037e+86
2.46109e+87
2.37476e+87
1.00554e+87
2.25157e+87
3.69667e+87
6.6188e+86
2.42492e+87
4.22454e+87
-5.53124e+86
3.0611e+87
3.68351e+87
-2.06333e+87
5.79148e+87
3.99026e+87
7.93955e+87
3.23774e+87
2.90792e+86
9.75119e+87
2.05249e+87
2.427e+87
6.53911e+87
2.73678e+87
5.09426e+87
3.658e+87
3.809e+87
4.84449e+87
2.63981e+87
4.31017e+87
2.9949e+87
2.07081e+87
4.53298e+87
2.96099e+86
2.34054e+87
4.60149e+87
-3.03182e+87
2.10739e+87
4.44669e+87
-3.99655e+87
3.76094e+86
4.14512e+87
3.64625e+87
-1.24183e+87
4.94111e+87
5.50966e+87
2.80726e+87
6.56122e+86
1.08731e+88
1.42691e+87
-6.12588e+86
7.62368e+87
4.01629e+87
-3.83278e+87
4.67941e+87
6.79947e+87
-9.37615e+87
3.48991e+87
7.19153e+87
-1.43844e+88
2.923e+87
6.50963e+87
-1.63698e+88
2.96386e+87
5.29337e+87
-1.91241e+88
3.61756e+87
4.3655e+87
-2.40021e+88
3.28415e+87
4.5597e+87
-1.91033e+88
-4.57966e+87
7.25175e+87
1.13744e+87
4.53917e+87
2.31681e+87
1.10191e+88
1.17831e+87
1.6218e+87
7.59634e+87
5.00284e+87
-3.46008e+86
4.99462e+87
6.42305e+87
-2.82793e+87
3.29047e+87
5.19297e+87
-2.72134e+87
1.63348e+87
3.72223e+87
1.20679e+87
6.21673e+86
2.34935e+87
6.35207e+87
4.8406e+86
1.861e+87
1.06068e+88
7.62927e+86
2.07813e+87
9.02077e+87
2.34987e+86
2.1991e+87
3.05582e+87
1.39326e+87
6.95903e+87
9.37297e+87
-8.15281e+86
9.5741e+87
5.50796e+87
4.42368e+87
1.04962e+88
3.42281e+87
5.44938e+87
1.12896e+88
2.00632e+87
4.05426e+87
1.24147e+88
1.13294e+87
2.81826e+87
1.36072e+88
7.92873e+86
2.12578e+87
1.4488e+88
6.524e+86
1.96422e+87
1.41444e+88
1.30523e+87
2.36802e+87
1.31108e+88
2.66073e+87
2.84496e+87
4.8942e+87
1.99561e+87
9.29111e+87
6.47579e+87
-8.77982e+86
1.40207e+88
3.90155e+87
4.66552e+87
1.7834e+88
1.22252e+87
5.66702e+87
2.0287e+88
2.46407e+86
4.43406e+87
2.15716e+88
1.81565e+86
3.18733e+87
2.19851e+88
2.01711e+86
2.28736e+87
2.18587e+88
-2.50698e+86
1.68785e+87
2.26384e+88
-7.06749e+86
1.84632e+87
2.43511e+88
1.02772e+87
2.15394e+87
4.84157e+87
1.62112e+87
1.49592e+88
-2.61662e+87
2.13284e+88
5.38301e+87
2.20031e+88
7.16061e+87
2.05306e+88
5.80588e+87
1.81739e+88
3.07517e+87
1.50392e+88
5.11064e+86
1.15818e+88
-7.75359e+86
1.02977e+88
-1.70752e+87
1.73045e+88
-3.27591e+87
-1.34227e+87
-4.07112e+87
2.12575e+87
6.3303e+86
-2.10154e+87
6.3233e+86
2.86827e+87
4.05621e+87
7.34732e+85
2.01361e+87
8.12007e+87
9.48904e+86
3.11873e+87
9.38187e+87
1.31809e+87
4.66771e+87
8.89956e+87
3.59926e+87
3.92656e+87
9.75122e+87
4.57352e+87
2.65938e+87
1.3081e+88
3.37776e+87
2.00718e+87
1.39561e+88
2.31662e+87
3.32547e+87
1.48688e+87
2.64403e+87
3.69465e+86
3.63184e+87
-3.26679e+86
6.94088e+86
2.55663e+87
4.79865e+87
-7.01479e+86
2.49215e+87
5.04531e+87
-3.71503e+87
3.23909e+87
4.72265e+87
-5.20314e+87
2.58586e+87
3.29509e+87
-2.9573e+87
3.59283e+87
1.63935e+87
8.41138e+86
4.07043e+87
1.41838e+87
3.22154e+87
3.65525e+87
2.4583e+87
7.64e+86
4.64451e+87
4.44337e+87
4.79829e+87
3.04623e+87
-3.2928e+87
7.26386e+87
2.98934e+87
-7.48248e+87
5.56675e+87
6.88077e+87
-9.80838e+87
4.33867e+87
5.17023e+87
-1.19964e+88
4.51899e+87
3.5066e+87
-1.31037e+88
3.58458e+87
1.37747e+87
-9.95282e+87
3.19534e+87
1.16655e+86
-5.21505e+87
3.31104e+87
2.55221e+86
-2.88638e+87
3.78702e+87
1.17906e+87
-3.7861e+87
6.5598e+87
1.92136e+87
7.98407e+87
2.30502e+87
-5.86449e+86
7.31004e+87
4.32525e+87
-1.9821e+87
5.96615e+87
5.74946e+87
-2.57753e+87
5.32179e+87
3.51336e+87
-4.00592e+87
5.94871e+87
2.14936e+87
-3.78651e+87
4.6693e+87
9.79298e+86
-8.1132e+86
3.4526e+87
4.59553e+86
2.41947e+87
3.46623e+87
6.75373e+86
4.81167e+87
4.21174e+87
1.11597e+87
8.08633e+87
6.11665e+87
1.85974e+87
8.71352e+87
2.4517e+87
-5.66299e+87
9.65681e+87
6.07811e+87
-1.08659e+88
8.46098e+87
5.86172e+87
-1.1194e+88
6.37165e+87
3.06687e+87
-6.86355e+87
4.33557e+87
1.38633e+87
-1.67465e+87
3.30636e+87
8.0799e+86
3.24273e+87
2.75924e+87
4.02364e+86
7.60622e+87
2.69918e+87
5.11111e+86
1.24565e+88
2.87285e+87
7.34581e+86
2.01473e+88
3.54413e+87
1.26642e+86
7.40102e+87
9.23652e+86
-6.32889e+87
1.16563e+88
6.35138e+87
-8.57972e+87
1.02854e+88
4.40348e+87
-4.88641e+87
6.63158e+87
2.37493e+87