/*--------------------------------*- C++ -*----------------------------------*\
| =========                 |                                                 |
| \\      /  F ield         | OpenFOAM: The Open Source CFD Toolbox           |
|  \\    /   O peration     | Version:  2012                                  |
|   \\  /    A nd           | Website:  www.openfoam.com                      |
|    \\/     M anipulation  |                                                 |
\*---------------------------------------------------------------------------*/
FoamFile
{
    version     2.0;
    format      ascii;
    class       volVectorField;
    location    "100";
    object      U;
}
// * * * * * * * * * * * * * * * * * * * * * * * * * * * * * * * * * * * * * //

dimensions      [0 1 -1 0 0 0 0];


internalField   nonuniform List<vector> 
1000
(
(-2.1132e+90 6.10703e+89 1.73166e+90)
(-1.31331e+90 1.76011e+89 -3.57375e+89)
(-1.58734e+90 5.53253e+89 -1.63686e+89)
(-2.68515e+90 5.58962e+89 -8.05028e+88)
(-2.66325e+90 5.00966e+89 -1.96599e+89)
(-2.39738e+90 4.00958e+89 -1.71657e+89)
(-2.18938e+90 6.8633e+89 -2.63928e+89)
(-2.57801e+90 1.0341e+90 -3.08499e+89)
(-5.68359e+89 1.57619e+90 -1.66922e+89)
(-3.17905e+91 1.15599e+91 3.89633e+91)
(4.33251e+89 6.95176e+89 2.66293e+89)
(-5.08719e+89 -3.71921e+87 -7.37123e+88)
(-1.72453e+90 -2.78235e+89 -1.10278e+88)
(-8.32777e+89 6.72782e+88 -8.44694e+88)
(-4.44043e+89 2.78658e+89 -1.59943e+89)
(-9.60749e+89 2.42325e+89 -1.37701e+89)
(-1.3536e+90 5.42889e+89 -2.14034e+89)
(-1.58213e+90 1.00897e+90 -2.81552e+89)
(-4.17417e+89 1.83292e+90 -2.33163e+89)
(1.2769e+90 2.0885e+90 3.28091e+89)
(7.94389e+89 7.6367e+89 3.9606e+88)
(2.00557e+88 5.1886e+89 -1.0789e+88)
(-5.84232e+89 2.32415e+89 5.66377e+88)
(-9.36266e+89 7.99418e+87 4.1753e+87)
(-1.00628e+90 2.36583e+89 -4.97652e+87)
(-1.79204e+90 4.85976e+89 -6.47389e+88)
(-1.92603e+90 8.55728e+89 -2.10337e+89)
(-1.44037e+90 1.14585e+90 -2.8794e+89)
(-3.38111e+89 1.61004e+90 -3.12251e+89)
(-4.84817e+89 2.34958e+90 -1.87222e+89)
(1.00551e+90 6.74601e+89 6.04256e+88)
(-6.67325e+88 5.14545e+89 1.40108e+89)
(-8.54012e+89 3.05719e+89 2.21047e+89)
(-2.02837e+90 3.43631e+89 2.61632e+89)
(-4.31246e+90 1.98903e+89 2.59676e+89)
(-3.78459e+90 2.23929e+89 -6.94898e+88)
(-2.13452e+90 5.77842e+89 -2.67233e+89)
(-1.36185e+90 8.69807e+89 -2.67147e+89)
(-4.32037e+89 1.18246e+90 -3.20845e+89)
(-8.74201e+89 1.44658e+90 -2.92958e+89)
(1.16846e+90 5.52358e+89 -3.77938e+88)
(2.73715e+89 6.17273e+89 2.2802e+88)
(-2.15949e+89 8.00334e+89 6.70637e+88)
(-2.89244e+89 9.55583e+89 9.9097e+88)
(-6.35475e+89 7.26924e+89 7.60128e+88)
(-1.08445e+90 3.56767e+89 -2.99482e+88)
(-1.2674e+90 3.34054e+89 -1.20586e+89)
(-1.13864e+90 6.58308e+89 -2.05635e+89)
(-2.57076e+89 9.60874e+89 -3.72687e+89)
(-1.23761e+90 1.1367e+90 -3.46566e+89)
(1.38271e+90 5.58943e+89 -8.24247e+88)
(-2.3859e+89 5.875e+89 -1.45321e+89)
(1.54286e+89 7.50323e+89 -8.62591e+88)
(2.50008e+89 7.13164e+89 -1.19526e+88)
(7.19098e+88 5.67858e+89 6.88539e+88)
(-1.79794e+89 4.0871e+89 2.9251e+88)
(-2.85403e+89 4.66396e+89 -4.40712e+88)
(-3.3604e+89 7.8384e+89 -1.76014e+89)
(4.00251e+89 1.16644e+90 -4.32753e+89)
(-9.43768e+89 1.23994e+90 -4.0545e+89)
(1.45352e+90 4.33597e+89 1.07761e+89)
(-1.83589e+89 3.29785e+89 8.85547e+88)
(6.606e+89 5.47802e+89 -3.02812e+87)
(6.54377e+89 4.42496e+89 7.23005e+88)
(4.82691e+89 3.74919e+89 9.85113e+88)
(3.09977e+89 3.39427e+89 4.36664e+88)
(2.54723e+89 5.37536e+89 -3.94677e+88)
(1.14341e+89 9.65612e+89 -1.90768e+89)
(5.63398e+89 1.60917e+90 -5.07834e+89)
(-9.44159e+89 1.69926e+90 -4.81431e+89)
(1.48567e+90 1.2112e+89 2.79206e+89)
(-2.23175e+89 1.05926e+89 2.70798e+89)
(4.43565e+89 3.58858e+89 1.22981e+89)
(3.77922e+89 3.18594e+89 2.81757e+89)
(-1.4174e+89 2.4057e+89 2.95551e+89)
(-4.19823e+89 2.71748e+89 1.38579e+89)
(-2.32679e+90 4.91939e+89 1.62836e+89)
(-3.79689e+90 1.23819e+90 -1.35605e+89)
(-2.13671e+90 1.99646e+90 -7.35984e+89)
(3.18336e+89 1.38102e+90 -4.33351e+89)
(1.00921e+90 -1.2981e+89 1.02466e+90)
(-5.64206e+90 -1.18041e+90 8.6216e+89)
(-2.88256e+90 -3.60822e+89 2.3237e+89)
(-5.21857e+90 -4.28412e+89 6.20467e+89)
(-5.26804e+90 -1.06225e+89 5.38235e+89)
(-6.2034e+90 1.39351e+89 1.76133e+89)
(-4.53341e+90 1.66725e+89 -1.88059e+89)
(-2.95192e+89 4.76948e+89 -3.1567e+89)
(1.29295e+90 8.54114e+89 -3.28225e+89)
(2.11158e+90 1.05357e+90 -1.87868e+89)
(1.90856e+90 9.9217e+89 1.42364e+90)
(-1.9266e+90 4.7504e+89 2.30262e+89)
(-1.45147e+90 2.9193e+89 6.20632e+88)
(-2.64095e+90 3.48642e+89 1.31882e+89)
(-2.57463e+90 4.74822e+89 6.91655e+88)
(-2.53421e+90 3.81215e+89 4.67821e+88)
(-3.6098e+90 -7.70549e+88 2.72219e+88)
(-4.21488e+90 -4.21419e+89 -1.8655e+89)
(-6.04035e+90 4.66523e+89 -1.33653e+90)
(-1.81312e+89 1.10618e+90 -5.08001e+89)
(9.90043e+89 9.55038e+89 1.40767e+90)
(-1.39745e+89 5.83605e+89 1.18702e+89)
(-1.13934e+90 7.25062e+89 2.62986e+89)
(-2.76592e+90 6.65252e+89 5.4072e+89)
(-1.87885e+90 3.08001e+89 -1.93227e+89)
(-1.22793e+90 4.87602e+89 -2.63992e+89)
(-1.21509e+90 7.4983e+89 -2.88757e+89)
(-1.8022e+90 9.72883e+89 -2.29687e+89)
(-9.65364e+89 1.42279e+90 3.31471e+88)
(4.62954e+90 4.47815e+90 5.51413e+89)
(1.16975e+90 8.00471e+89 7.08868e+89)
(2.2027e+88 4.79175e+89 2.16797e+89)
(-1.96576e+89 5.20937e+89 1.19785e+89)
(-3.53903e+87 4.41989e+89 -7.60561e+88)
(-5.03871e+88 4.07999e+89 -1.81223e+89)
(-4.12713e+89 3.90166e+89 -1.70527e+89)
(-5.86841e+89 6.06045e+89 -1.89742e+89)
(-1.05541e+90 8.84332e+89 -1.56451e+89)
(-5.10063e+89 1.52744e+90 4.77876e+87)
(-1.76486e+88 3.27563e+90 7.64957e+89)
(1.04363e+90 6.78495e+89 3.29933e+89)
(-6.30033e+89 3.11841e+89 2.74045e+89)
(2.5544e+88 3.47089e+89 2.08516e+89)
(-5.70889e+89 2.50594e+89 9.6581e+88)
(-2.40792e+89 4.82897e+89 -3.30956e+88)
(-3.11722e+89 6.53611e+89 -1.05636e+89)
(-3.59148e+89 8.11916e+89 -1.68377e+89)
(-7.06307e+89 9.79739e+89 -1.35765e+89)
(-3.34815e+89 1.25544e+90 -3.89837e+88)
(-1.18713e+90 1.83332e+90 1.69778e+89)
(1.1353e+90 4.59668e+89 2.95073e+89)
(1.15452e+89 3.46618e+89 3.48485e+89)
(4.50913e+89 4.93515e+89 3.8072e+89)
(-1.1997e+90 4.51773e+89 5.35279e+89)
(-9.92039e+89 5.09935e+89 1.21487e+89)
(-6.35995e+89 5.91715e+89 -7.26103e+88)
(-4.89799e+89 7.09714e+89 -1.8114e+89)
(-7.23067e+89 8.0555e+89 -1.27986e+89)
(-3.267e+89 8.82536e+89 -5.15715e+88)
(-1.57434e+90 1.0757e+90 1.40182e+88)
(8.3291e+89 1.59774e+89 3.76413e+89)
(-6.10988e+89 6.71869e+88 3.55395e+89)
(-3.70825e+88 6.09127e+89 1.85647e+89)
(3.17259e+88 8.52835e+89 1.38661e+89)
(-7.02477e+88 8.16172e+89 4.70534e+88)
(-3.19089e+89 6.29744e+89 -1.30585e+88)
(-4.54872e+89 6.29624e+89 -6.46767e+88)
(-7.1574e+89 7.29441e+89 -1.05157e+89)
(-1.50901e+88 7.32348e+89 -2.16618e+89)
(-2.12759e+90 7.72043e+89 -1.39388e+89)
(1.32569e+90 6.22306e+89 3.54785e+89)
(-2.75255e+90 1.38257e+89 4.84891e+89)
(-5.45644e+90 -2.96647e+88 7.59286e+89)
(-5.36132e+90 2.41847e+89 1.12138e+90)
(-2.34169e+90 2.40742e+89 6.51186e+89)
(-1.54775e+90 2.06753e+89 2.91764e+89)
(-6.09894e+89 4.63416e+89 3.44918e+88)
(-2.99597e+89 7.84076e+89 -1.60469e+89)
(7.46562e+89 9.97223e+89 -4.61012e+89)
(-1.91076e+90 9.8361e+89 -3.96682e+89)
(1.44372e+90 6.7971e+89 4.87852e+89)
(4.66915e+89 5.46352e+89 2.322e+89)
(9.86481e+89 4.61104e+89 7.73636e+88)
(8.29125e+89 3.40726e+89 2.16723e+89)
(5.73079e+89 8.70616e+88 3.616e+89)
(-8.14138e+88 -1.63844e+89 4.42082e+89)
(-3.41762e+88 1.9795e+89 2.76241e+89)
(8.89533e+88 8.25707e+89 -1.28965e+89)
(1.11031e+90 1.37721e+90 -5.93983e+89)
(-1.2575e+90 1.394e+90 -5.6997e+89)
(1.26559e+90 3.18531e+89 9.91214e+89)
(1.15189e+89 1.69283e+89 5.53419e+89)
(-7.21541e+89 -1.97962e+89 5.07991e+89)
(7.49958e+89 1.35623e+89 3.85247e+89)
(1.15386e+90 2.71081e+89 2.81938e+89)
(7.27833e+89 1.62285e+89 4.03932e+89)
(-1.47455e+90 -1.35433e+89 7.71927e+89)
(-1.65714e+90 6.30831e+89 -8.29717e+88)
(4.27653e+89 1.344e+90 -9.21341e+89)
(-6.27198e+89 1.23736e+90 -7.78501e+89)
(1.69739e+90 2.88917e+89 1.30336e+90)
(6.63392e+89 2.30762e+89 5.22891e+89)
(-2.0079e+89 -1.09347e+89 4.82412e+89)
(-1.00997e+90 -4.20731e+89 7.33556e+89)
(-3.69748e+88 8.79632e+88 4.29521e+89)
(-6.25445e+89 4.04477e+89 4.35071e+89)
(-1.21371e+90 3.72894e+89 7.12813e+88)
(-9.89781e+89 3.12163e+89 -3.99531e+89)
(-4.92259e+88 7.51857e+89 -1.04786e+90)
(-8.8381e+89 9.4654e+89 -8.41482e+89)
(3.04321e+90 8.50614e+89 1.40632e+90)
(4.95797e+89 5.02902e+89 4.77856e+89)
(3.64049e+89 4.00591e+89 3.0599e+89)
(-2.87421e+89 3.49838e+89 3.44808e+89)
(-2.05351e+89 5.05612e+89 2.42758e+89)
(-3.31063e+89 6.43786e+89 1.96784e+89)
(-2.41274e+88 6.01929e+89 6.61743e+88)
(4.35529e+89 5.77433e+89 -2.19349e+89)
(6.99934e+89 8.25727e+89 -1.10522e+90)
(1.68626e+89 9.30252e+89 -1.0916e+90)
(1.38495e+90 8.84476e+89 8.47117e+89)
(-1.41043e+89 8.04845e+89 4.96658e+89)
(-1.09677e+90 7.53811e+89 5.6234e+89)
(-3.30521e+89 6.66435e+89 4.66173e+88)
(-6.48073e+89 5.41385e+89 -4.32247e+89)
(-8.50069e+89 5.70444e+89 -5.53654e+89)
(-1.05772e+90 7.00919e+89 -4.8386e+89)
(-1.52529e+90 8.62399e+89 -3.47843e+89)
(-5.42101e+89 1.19513e+90 -2.99009e+89)
(-2.29195e+90 2.06029e+90 5.91356e+90)
(1.27525e+90 6.33688e+89 6.50748e+89)
(5.0048e+88 4.70225e+89 3.46959e+89)
(1.38184e+89 5.12858e+89 1.33948e+89)
(1.03395e+89 4.39313e+89 -1.335e+89)
(-1.34123e+89 3.43163e+89 -2.59574e+89)
(-4.08287e+89 3.45085e+89 -2.52166e+89)
(-7.40194e+89 4.94681e+89 -1.56443e+89)
(-1.18695e+90 7.82602e+89 -1.79482e+88)
(-6.43269e+89 1.38867e+90 6.81618e+87)
(-1.32216e+90 1.58293e+90 3.46445e+89)
(1.0675e+90 4.27518e+89 5.88558e+89)
(9.09896e+88 5.28756e+89 3.32486e+89)
(2.71004e+89 5.90949e+89 2.02373e+89)
(8.00441e+88 5.48176e+89 8.91173e+88)
(-1.99572e+89 4.99467e+89 -2.95471e+88)
(-7.28165e+89 4.80652e+89 -4.5641e+88)
(-1.38225e+90 5.15353e+89 1.21988e+89)
(-2.00045e+90 7.23041e+89 3.49113e+89)
(-1.24541e+90 1.16749e+90 3.42348e+89)
(-2.01008e+90 1.2783e+90 1.68915e+89)
(7.85475e+89 2.77509e+89 8.83368e+89)
(-1.46211e+90 8.63381e+88 8.03245e+89)
(-4.46487e+89 3.71528e+89 5.84815e+89)
(-2.4211e+89 5.80176e+89 2.94689e+89)
(-3.47834e+89 6.12338e+89 6.15772e+88)
(-6.89721e+89 5.91407e+89 8.67407e+88)
(-1.09595e+90 5.491e+89 3.12557e+89)
(-2.29811e+90 4.43576e+89 5.73799e+89)
(-1.37517e+90 4.99213e+89 4.30316e+89)
(-1.84945e+90 7.53727e+89 5.07251e+88)
(1.34167e+90 4.75079e+89 4.71027e+89)
(5.78309e+89 2.82568e+89 3.92434e+89)
(6.471e+89 4.09414e+89 3.15714e+89)
(6.79536e+89 6.88679e+89 1.25149e+89)
(5.01661e+89 7.76552e+89 1.12931e+88)
(3.71346e+89 6.73639e+89 1.56329e+88)
(2.58555e+89 6.55883e+89 2.05904e+88)
(-2.07947e+89 6.19334e+89 2.70565e+88)
(1.3956e+89 4.53614e+89 -8.05374e+88)
(-1.28438e+90 5.28813e+89 -1.15203e+89)
(1.18164e+90 4.62899e+89 8.5493e+89)
(-7.23112e+89 2.06435e+89 1.13526e+90)
(-4.27981e+90 -4.3668e+89 1.94761e+90)
(-1.98146e+90 2.42593e+89 5.40672e+89)
(-2.36247e+89 5.74175e+89 3.30892e+88)
(2.12014e+89 5.93591e+89 -6.98158e+87)
(4.43297e+89 6.65337e+89 -7.2958e+88)
(2.7604e+89 7.48817e+89 -1.75492e+89)
(1.02048e+90 7.98725e+89 -3.65085e+89)
(-2.18804e+90 5.77333e+89 -2.01589e+89)
(1.29255e+90 6.90256e+89 9.29223e+89)
(-6.1564e+89 4.32687e+89 8.04765e+89)
(-1.48882e+90 -1.00728e+89 7.16794e+89)
(-2.33316e+90 -4.63922e+89 6.62922e+89)
(-1.21576e+90 -1.89661e+89 4.67277e+89)
(-6.4431e+89 8.75219e+88 3.79862e+89)
(2.89084e+89 4.18578e+89 1.06324e+89)
(4.94526e+89 7.63054e+89 -1.97019e+89)
(1.39723e+90 1.11359e+90 -5.00479e+89)
(-9.99639e+89 1.09796e+90 -4.83059e+89)
(1.61361e+90 5.16076e+89 1.14923e+90)
(2.22434e+89 2.27808e+89 6.83326e+89)
(-3.57854e+89 -6.8331e+88 5.02669e+89)
(1.35801e+89 3.29526e+87 2.51722e+89)
(-1.64144e+89 -7.76117e+88 4.16919e+89)
(4.98624e+89 1.68195e+89 4.62829e+89)
(6.608e+89 3.71186e+89 2.2629e+89)
(8.05784e+89 6.86523e+89 -1.73041e+89)
(1.494e+90 1.01097e+90 -5.9697e+89)
(-2.52575e+89 1.00005e+90 -6.07796e+89)
(1.7611e+90 4.99306e+89 1.60178e+90)
(-1.3925e+90 -1.65728e+89 1.44853e+90)
(-1.93941e+90 -6.2385e+89 9.84774e+89)
(8.23796e+88 -1.93573e+89 3.93304e+89)
(5.87902e+89 7.4318e+88 2.79035e+89)
(1.02026e+90 3.28947e+89 1.80637e+89)
(1.12068e+90 5.19737e+89 2.53604e+88)
(1.24767e+90 6.29843e+89 -2.15513e+89)
(2.03282e+90 8.3513e+89 -5.49244e+89)
(1.0639e+89 7.59833e+89 -6.62504e+89)
(3.27533e+90 1.08241e+90 1.60063e+90)
(8.27277e+88 4.80254e+89 9.45448e+89)
(1.76866e+88 2.9145e+89 5.83662e+89)
(-2.69322e+89 1.39543e+89 4.2319e+89)
(-3.37217e+88 3.0933e+89 2.91714e+89)
(1.34463e+89 5.1155e+89 2.39952e+89)
(5.86734e+89 6.47601e+89 7.71958e+88)
(1.29441e+90 7.13774e+89 -2.39974e+89)
(2.31941e+90 8.68076e+89 -7.06946e+89)
(1.38661e+90 8.23697e+89 -7.72119e+89)
(1.3812e+90 8.96304e+89 8.36726e+89)
(-2.23258e+90 4.99793e+89 1.07259e+90)
(-9.86031e+89 2.47508e+89 4.33456e+88)
(-5.48311e+89 2.25961e+89 -1.60629e+89)
(-9.9634e+89 1.5332e+89 -2.84428e+89)
(-1.12703e+90 2.22176e+89 -4.5119e+89)
(-1.44166e+90 3.67039e+89 -5.59927e+89)
(-2.11748e+90 5.54146e+89 -5.29293e+89)
(-8.43353e+89 1.00732e+90 -6.4998e+89)
(-7.77808e+90 2.37676e+90 2.03233e+90)
(1.43909e+90 6.95897e+89 4.93827e+89)
(-1.78882e+89 3.31341e+89 3.72093e+89)
(1.33376e+89 3.23522e+89 1.2688e+89)
(-6.23436e+89 4.72115e+88 1.67394e+89)
(-2.24678e+90 -4.48049e+89 1.34272e+89)
(-3.33132e+90 -5.10087e+89 -2.34569e+88)
(-3.2603e+90 1.28142e+89 5.87865e+88)
(-3.08258e+90 8.09946e+89 2.41554e+89)
(-1.44647e+90 1.54184e+90 -1.52039e+89)
(-1.99371e+90 1.12966e+90 -3.05855e+89)
(1.28555e+90 4.89908e+89 3.99232e+89)
(2.28045e+89 4.5692e+89 3.32864e+89)
(6.63367e+88 4.38789e+89 3.55011e+89)
(-7.13016e+89 3.75452e+89 5.3221e+89)
(-1.69735e+90 1.37187e+89 5.79352e+89)
(-2.92069e+90 1.03381e+89 4.85427e+89)
(-3.69264e+90 4.85846e+89 4.48394e+89)
(-2.71884e+90 7.19549e+89 6.81635e+89)
(-1.63614e+90 9.41911e+89 3.69111e+89)
(-1.21769e+90 7.74597e+89 -2.25476e+89)
(1.17597e+90 3.507e+89 6.47272e+89)
(4.47832e+89 5.10027e+89 4.74974e+89)
(2.16757e+89 5.39743e+89 5.10917e+89)
(-7.19435e+88 6.06272e+89 4.82304e+89)
(-9.63199e+89 5.55011e+89 4.103e+89)
(-2.7975e+90 3.78809e+89 3.67168e+89)
(-1.13574e+90 4.47018e+89 4.59655e+89)
(-3.65032e+89 4.94023e+89 4.60146e+89)
(-5.61341e+88 4.46567e+89 3.55804e+89)
(5.9516e+88 5.57548e+89 -8.31468e+88)
(9.49667e+89 3.04463e+89 8.65365e+89)
(-5.98862e+89 2.53254e+89 9.452e+89)
(-5.95528e+88 3.72139e+89 6.56055e+89)
(3.17817e+89 6.81345e+89 2.58896e+89)
(1.8746e+89 7.6383e+89 1.77438e+89)
(-4.32013e+88 5.69893e+89 2.36277e+89)
(-3.43638e+89 3.52218e+89 3.04094e+89)
(-6.48829e+89 2.93175e+89 2.44604e+89)
(1.4911e+88 2.22644e+89 5.41604e+88)
(-1.38198e+90 2.71629e+89 3.19244e+88)
(8.99775e+89 5.20009e+89 1.37377e+90)
(-8.98262e+89 2.64505e+89 1.61291e+90)
(2.42479e+89 3.41659e+89 7.36379e+89)
(7.61261e+89 5.74988e+89 1.73157e+89)
(8.96348e+89 6.43406e+89 -1.39749e+87)
(9.00448e+89 5.70936e+89 -6.57637e+87)
(8.46986e+89 5.38251e+89 -4.16255e+88)
(5.95422e+89 5.53153e+89 -8.73768e+88)
(9.78181e+89 5.57366e+89 -1.54906e+89)
(-1.27483e+90 3.21966e+89 1.96983e+88)
(1.21119e+90 9.21066e+89 1.48491e+90)
(-9.07637e+89 2.7618e+89 1.3972e+90)
(-5.99283e+89 9.14163e+88 7.73683e+89)
(2.06972e+89 2.472e+89 2.65554e+89)
(7.1945e+89 3.71964e+89 3.36946e+88)
(9.29737e+89 4.17117e+89 -5.61197e+87)
(9.72466e+89 4.78543e+89 -2.86949e+88)
(8.75023e+89 6.13285e+89 -1.2047e+89)
(1.4228e+90 8.03444e+89 -2.83258e+89)
(-4.29855e+89 7.27709e+89 -1.90935e+89)
(1.74602e+90 7.6952e+89 1.12799e+90)
(4.56851e+89 3.05581e+89 7.34742e+89)
(5.05092e+89 1.46447e+89 4.37448e+89)
(6.00936e+89 1.32705e+89 1.9623e+89)
(8.38987e+89 2.24298e+89 5.68966e+88)
(9.48556e+89 3.20175e+89 3.54451e+88)
(9.51542e+89 4.27325e+89 5.21489e+88)
(1.04111e+90 6.00485e+89 -1.11662e+89)
(1.62442e+90 7.99457e+89 -2.83308e+89)
(2.78371e+89 7.5894e+89 -2.69494e+89)
(1.98502e+90 6.44147e+89 1.4697e+90)
(5.02734e+89 1.74237e+89 9.92966e+89)
(6.74169e+89 1.01605e+88 4.21618e+89)
(7.9875e+89 -2.29335e+87 1.35794e+89)
(1.02974e+90 1.31692e+89 5.7676e+88)
(1.09041e+90 2.63579e+89 1.00066e+89)
(1.13942e+90 3.7788e+89 8.90293e+88)
(1.35317e+90 5.16911e+89 -1.11414e+89)
(2.00332e+90 6.89862e+89 -2.62976e+89)
(7.8382e+89 5.9151e+89 -2.91191e+89)
(3.11039e+90 1.02306e+90 1.77698e+90)
(4.9173e+89 5.31046e+89 1.06628e+90)
(6.05886e+89 3.53384e+89 4.05023e+89)
(8.6261e+89 3.31302e+89 1.48926e+89)
(1.04303e+90 3.91391e+89 1.02959e+89)
(1.1048e+90 4.86286e+89 1.40711e+89)
(1.36671e+90 5.63694e+89 4.23366e+88)
(1.82535e+90 6.34362e+89 -1.7872e+89)
(2.59994e+90 7.39046e+89 -3.15728e+89)
(2.00292e+90 6.62455e+89 -4.17989e+89)
(1.27955e+90 7.77552e+89 6.31079e+89)
(-3.01157e+89 6.64883e+89 6.71893e+89)
(-6.9551e+89 3.77459e+89 1.42477e+89)
(-1.14422e+90 1.30309e+89 1.64504e+89)
(-1.03352e+90 -2.61016e+88 3.16162e+89)
(-1.23576e+90 -9.4671e+88 1.89102e+89)
(-1.49271e+90 2.70463e+88 -3.76127e+88)
(-2.09288e+90 2.69399e+89 2.11359e+88)
(-8.43319e+89 6.97765e+89 3.34022e+89)
(-1.10043e+91 2.60426e+90 2.99148e+90)
(1.4602e+90 5.26479e+89 3.15532e+89)
(4.5996e+89 4.17431e+89 3.37863e+89)
(6.3926e+89 4.78598e+89 3.40899e+89)
(6.71315e+89 4.76846e+89 4.28145e+89)
(2.17389e+89 3.70052e+89 5.26159e+89)
(-1.02135e+90 8.06694e+88 5.15574e+89)
(-3.07305e+90 -1.41792e+89 2.56238e+89)
(-2.2051e+90 5.28258e+89 -6.15384e+86)
(-7.62917e+89 1.15825e+90 -2.64186e+89)
(-1.88034e+90 8.86149e+89 7.22408e+88)
(1.27834e+90 3.16902e+89 3.58429e+89)
(-9.57526e+89 2.75413e+89 6.90425e+89)
(-1.77735e+90 2.39076e+89 8.57783e+89)
(-8.53523e+89 2.49006e+89 7.82208e+89)
(-7.56573e+89 2.21159e+89 6.92334e+89)
(5.64942e+88 2.99992e+89 4.2141e+89)
(-8.17428e+89 3.81835e+89 4.0635e+89)
(-2.04644e+90 7.8929e+89 4.21457e+89)
(-9.59432e+89 8.85913e+89 8.64043e+88)
(-7.202e+89 5.86355e+89 -2.59767e+89)
(1.14678e+90 5.15127e+89 6.6048e+89)
(-1.06539e+90 4.88662e+89 9.50373e+89)
(2.37934e+89 4.40295e+89 5.47594e+89)
(8.64846e+89 4.69298e+89 3.74387e+89)
(8.59966e+89 4.87036e+89 3.67546e+89)
(3.8591e+89 4.76613e+89 3.89174e+89)
(-1.41982e+90 5.67897e+89 4.25327e+89)
(-6.97237e+88 5.25256e+89 3.45656e+89)
(6.07173e+89 4.74675e+89 2.84143e+89)
(7.1832e+89 4.91174e+89 2.65052e+87)
(1.13865e+90 6.80101e+89 8.37388e+89)
(-5.33179e+88 4.7786e+89 7.91023e+89)
(5.02305e+89 4.00678e+89 4.19528e+89)
(3.27188e+89 4.69037e+89 2.69102e+89)
(-3.09614e+89 6.06777e+89 2.79291e+89)
(2.38765e+89 6.35927e+89 2.70064e+89)
(6.19973e+89 5.04366e+89 2.87437e+89)
(6.38842e+89 4.11834e+89 3.11623e+89)
(6.26365e+89 2.60236e+89 2.83996e+89)
(1.81989e+89 3.92219e+89 1.20658e+89)
(1.23491e+90 7.6198e+89 1.20537e+90)
(7.26517e+88 4.99826e+89 1.01191e+90)
(7.97701e+89 4.50864e+89 4.34898e+89)
(9.92347e+89 5.8257e+89 1.92807e+89)
(1.05229e+90 5.79067e+89 1.27843e+89)
(1.04268e+90 4.83023e+89 1.33161e+89)
(7.09088e+89 3.66224e+89 1.67876e+89)
(4.82328e+88 2.99986e+89 1.796e+89)
(8.01909e+89 3.57982e+89 1.70598e+89)
(-1.8477e+90 1.43884e+89 3.79652e+89)
(1.41357e+90 9.14473e+89 1.38811e+90)
(1.76822e+89 4.87818e+89 9.87004e+89)
(6.0956e+89 3.5017e+89 4.45584e+89)
(8.42051e+89 3.91811e+89 1.98252e+89)
(9.92067e+89 3.9686e+89 8.41661e+88)
(1.05626e+90 3.77852e+89 6.19917e+88)
(1.11053e+90 4.29155e+89 2.92627e+88)
(1.09666e+90 5.1748e+89 -5.11932e+88)
(1.49546e+90 6.67012e+89 -1.20938e+89)
(-4.04912e+89 5.54045e+89 2.30183e+88)
(1.63523e+90 8.28822e+89 1.28652e+90)
(-1.19637e+89 3.05145e+89 9.7129e+89)
(2.8461e+89 1.1917e+89 5.01449e+89)
(7.32634e+89 1.46494e+89 2.12754e+89)
(1.04199e+90 2.25097e+89 8.1489e+88)
(1.06839e+90 2.71854e+89 7.73226e+88)
(1.08969e+90 3.52317e+89 6.05473e+88)
(1.11215e+90 4.74457e+89 -6.16179e+88)
(1.42092e+90 7.11109e+89 -1.76336e+89)
(5.14293e+89 6.57775e+89 -1.4885e+89)
(1.85468e+90 6.72403e+89 1.53655e+90)
(4.1505e+89 1.81665e+89 9.71539e+89)
(7.03213e+89 -1.87856e+88 4.60368e+89)
(9.20952e+89 -2.22601e+87 1.88022e+89)
(1.09169e+90 9.43069e+88 1.12933e+89)
(9.53152e+89 1.60956e+89 1.58554e+89)
(1.15029e+90 2.87396e+89 1.0384e+89)
(1.35152e+90 4.12803e+89 -7.36352e+88)
(1.74529e+90 6.15719e+89 -1.53899e+89)
(1.12671e+90 5.50054e+89 -1.78695e+89)
(2.86308e+90 9.95038e+89 1.93896e+90)
(1.02101e+90 5.43085e+89 8.79365e+89)
(1.07243e+90 3.44048e+89 3.23116e+89)
(9.13465e+89 2.80875e+89 1.41392e+89)
(9.44097e+89 3.28041e+89 1.54361e+89)
(9.77859e+89 4.23523e+89 2.02925e+89)
(1.58257e+90 5.1858e+89 6.18792e+88)
(1.84543e+90 5.4659e+89 -9.49292e+88)
(2.3679e+90 6.6611e+89 -1.72761e+89)
(2.3662e+90 6.57218e+89 -2.55958e+89)
(9.55233e+89 5.42823e+89 6.46744e+89)
(-4.11485e+89 5.4913e+89 8.98762e+89)
(-1.36603e+90 3.43193e+89 4.53257e+89)
(-2.04686e+90 2.43312e+89 2.83896e+89)
(-2.50797e+90 6.35354e+88 2.13631e+89)
(-1.69291e+90 -3.78039e+88 6.2028e+88)
(-1.35932e+90 8.18207e+87 -4.52865e+87)
(-1.57298e+90 1.12055e+89 2.59689e+89)
(-8.74897e+89 2.72624e+89 9.63191e+89)
(-5.96324e+90 7.26649e+89 2.06538e+90)
(8.99611e+89 7.30139e+88 3.59038e+89)
(-1.53962e+89 3.20956e+89 5.33981e+89)
(-1.59153e+90 1.95984e+89 4.6632e+89)
(-1.61171e+90 2.05521e+89 5.44597e+89)
(-9.95468e+89 2.23071e+89 6.1488e+89)
(-9.0655e+89 1.25408e+89 4.17922e+89)
(-8.57437e+89 5.46149e+87 1.35535e+89)
(-8.96629e+89 1.78346e+89 6.19957e+88)
(-5.28663e+89 5.09141e+89 1.10808e+89)
(-3.2369e+90 8.73676e+89 6.14399e+89)
(7.05014e+89 1.9213e+89 5.50706e+89)
(-4.06293e+89 4.39808e+89 5.90582e+89)
(-2.99848e+89 3.58636e+89 4.02469e+89)
(5.0831e+88 2.7867e+89 3.46995e+89)
(1.58776e+88 2.30714e+89 3.93335e+89)
(3.69366e+88 2.69693e+89 3.84164e+89)
(1.50637e+88 3.24597e+89 2.58778e+89)
(-4.1742e+89 4.1453e+89 2.31686e+89)
(-3.12054e+89 5.73375e+89 1.86941e+89)
(-1.07535e+90 4.64049e+89 -4.57113e+88)
(8.73616e+89 6.27109e+89 6.26239e+89)
(1.08068e+89 4.91561e+89 4.73313e+89)
(3.72637e+89 3.41736e+89 2.9969e+89)
(4.25856e+89 2.2359e+89 3.38913e+89)
(3.66622e+89 2.27045e+89 4.55709e+89)
(2.86276e+89 3.34035e+89 5.11711e+89)
(1.42316e+89 4.88711e+89 3.25405e+89)
(-1.3724e+89 5.65391e+89 1.57969e+89)
(6.47258e+87 4.30822e+89 1.7696e+89)
(2.69883e+89 4.62534e+89 4.58944e+88)
(1.03421e+90 8.24394e+89 6.79471e+89)
(2.98199e+89 5.36284e+89 5.47586e+89)
(3.63259e+89 3.6652e+89 4.11869e+89)
(1.4183e+88 3.09091e+89 4.82712e+89)
(-9.54202e+89 2.60961e+89 6.02862e+89)
(-2.09248e+90 2.77e+89 5.88764e+89)
(-1.60034e+90 3.48767e+89 3.47123e+89)
(-1.17343e+88 4.14807e+89 2.67563e+89)
(2.67287e+89 3.58003e+89 3.30817e+89)
(5.15168e+88 4.36763e+89 1.38851e+89)
(1.28317e+90 9.2325e+89 8.48266e+89)
(7.09618e+89 5.97354e+89 5.95832e+89)
(7.42322e+89 4.76888e+89 3.98609e+89)
(4.03703e+89 4.98478e+89 3.81271e+89)
(1.24935e+89 4.58956e+89 3.95559e+89)
(2.33555e+89 3.25591e+89 3.65768e+89)
(2.77706e+89 2.13957e+89 3.4063e+89)
(4.52799e+89 1.98955e+89 2.69686e+89)
(6.69166e+89 2.39731e+89 3.78973e+89)
(8.26288e+89 5.54158e+89 4.2727e+88)
(1.51829e+90 9.28544e+89 9.13749e+89)
(9.31593e+89 5.6921e+89 5.60077e+89)
(1.04385e+90 4.60825e+89 3.50865e+89)
(1.02986e+90 4.19155e+89 2.55807e+89)
(1.04043e+90 3.67733e+89 1.81963e+89)
(1.05427e+90 3.1155e+89 1.12935e+89)
(1.01142e+90 2.96703e+89 5.35587e+88)
(8.59865e+89 3.13409e+89 2.31874e+88)
(1.21328e+90 3.58498e+89 6.36726e+88)
(-4.31609e+89 3.13502e+89 1.42523e+89)
(1.69888e+90 8.13218e+89 9.11032e+89)
(7.88993e+89 4.31285e+89 6.10252e+89)
(9.13025e+89 2.76367e+89 4.00073e+89)
(1.05401e+90 2.19395e+89 2.52312e+89)
(1.14944e+90 2.21516e+89 1.57069e+89)
(1.15285e+90 2.45437e+89 1.11926e+89)
(1.16466e+90 3.03337e+89 5.81919e+88)
(1.17782e+90 3.76359e+89 -1.39148e+88)
(1.3638e+90 5.33961e+89 -7.95811e+88)
(-4.11127e+88 4.77687e+89 1.05647e+88)
(1.97292e+90 6.75284e+89 1.03223e+90)
(1.04304e+90 3.31784e+89 6.51862e+89)
(1.03107e+90 1.25217e+89 4.48495e+89)
(9.65945e+89 4.17019e+88 3.15871e+89)
(9.36965e+89 6.18013e+88 2.23752e+89)
(9.00059e+89 1.27444e+89 1.64783e+89)
(1.0827e+90 2.17539e+89 6.2103e+88)
(1.28178e+90 3.02005e+89 -3.44712e+88)
(1.54702e+90 5.46977e+89 -6.81385e+88)
(8.54797e+89 4.78978e+89 -7.41376e+88)
(2.78735e+90 8.98065e+89 1.43407e+90)
(1.44633e+90 5.35569e+89 6.90016e+89)
(1.30239e+90 3.71123e+89 4.06325e+89)
(9.24496e+89 2.91187e+89 2.58601e+89)
(8.01472e+89 3.16915e+89 1.4187e+89)
(9.85802e+89 4.17447e+89 3.30469e+88)
(1.64383e+90 5.12173e+89 -5.09954e+88)
(1.90764e+90 5.18874e+89 -8.38487e+88)
(2.35592e+90 6.25126e+89 -9.54174e+88)
(2.29139e+90 6.33332e+89 -1.52324e+89)
(1.11617e+90 5.46096e+89 7.42122e+89)
(4.81114e+89 6.02685e+89 8.17025e+89)
(1.91059e+89 6.16463e+89 8.56784e+89)
(-3.01973e+89 6.37663e+89 7.19729e+89)
(-1.09043e+90 2.87492e+89 4.1618e+89)
(-1.65563e+90 9.4743e+88 3.67743e+89)
(-3.80016e+90 1.43868e+89 6.81669e+89)
(-6.53336e+90 2.19776e+89 1.47041e+90)
(-4.45975e+90 -1.16123e+89 2.54489e+90)
(-4.69629e+90 7.27866e+88 1.23859e+90)
(1.10349e+90 2.31218e+89 4.47753e+89)
(-7.58049e+88 2.00875e+89 5.57573e+89)
(-1.09171e+90 5.56227e+88 6.28512e+89)
(-7.13569e+89 1.97825e+89 3.90777e+89)
(-2.72642e+89 2.57571e+89 3.30263e+89)
(-6.92718e+89 2.7574e+89 4.26569e+89)
(-2.21139e+90 1.58297e+89 5.11987e+89)
(-3.01149e+90 3.03404e+89 4.87392e+89)
(-1.63779e+90 5.61686e+89 7.94231e+89)
(-6.23569e+90 9.2049e+89 1.06161e+90)
(9.77447e+89 3.67621e+89 3.88282e+89)
(-2.65711e+89 4.51177e+89 4.33377e+89)
(-4.59929e+89 3.48621e+89 4.0707e+89)
(-6.93681e+89 1.98454e+89 3.7282e+89)
(-9.57225e+89 2.09309e+89 4.98068e+89)
(-1.23812e+90 4.16854e+89 5.90495e+89)
(-1.69617e+90 3.74866e+89 5.60803e+89)
(-3.15533e+90 3.02229e+89 4.63452e+89)
(-4.67882e+89 5.05938e+89 2.70916e+89)
(3.91575e+89 3.0558e+89 4.17684e+88)
(7.62423e+89 6.6525e+89 4.44604e+89)
(-1.92219e+89 5.67251e+89 3.93424e+89)
(-6.44192e+89 4.24052e+89 3.65878e+89)
(-5.12671e+89 2.95463e+89 4.15739e+89)
(-8.60631e+89 2.17744e+89 5.78121e+89)
(-2.89693e+89 3.60324e+89 4.82643e+89)
(-1.97446e+89 4.37901e+89 3.31245e+89)
(-5.2819e+89 3.13438e+89 1.59236e+89)
(-1.1945e+90 1.29767e+89 2.1367e+89)
(-1.1382e+90 4.16535e+89 1.49246e+89)
(8.84356e+89 9.51367e+89 4.64448e+89)
(8.69938e+88 6.46986e+89 4.71149e+89)
(-1.44537e+89 4.09925e+89 4.94608e+89)
(2.79017e+89 3.9561e+89 4.1957e+89)
(2.94941e+89 3.88631e+89 3.6522e+89)
(6.65706e+89 4.26721e+89 2.35541e+89)
(7.1719e+89 4.82673e+89 9.69861e+88)
(6.88847e+89 4.93704e+89 1.28323e+88)
(7.28085e+89 5.31724e+89 1.30762e+89)
(-4.56188e+89 5.44331e+89 4.16065e+89)
(1.226e+90 1.03184e+90 4.80095e+89)
(6.12484e+89 6.8628e+89 4.61479e+89)
(3.88874e+89 4.48068e+89 4.57599e+89)
(4.30116e+89 4.31575e+89 3.90083e+89)
(7.4835e+89 4.72896e+89 3.26626e+89)
(8.73951e+89 4.53371e+89 2.99892e+89)
(8.58433e+89 4.19655e+89 2.56923e+89)
(7.31604e+89 3.34702e+89 2.23392e+89)
(6.51849e+89 2.43586e+89 3.56538e+89)
(1.19995e+90 5.8693e+89 5.01433e+88)
(1.41084e+90 1.01786e+90 5.44074e+89)
(5.93974e+89 6.48233e+89 5.11448e+89)
(4.28259e+89 4.17868e+89 4.61752e+89)
(5.48546e+89 3.0354e+89 3.03784e+89)
(9.37103e+89 3.27954e+89 2.29068e+89)
(9.87352e+89 3.13049e+89 2.13474e+89)
(8.27044e+89 2.6502e+89 1.77589e+89)
(5.74993e+89 1.89538e+89 1.42618e+89)
(7.92763e+89 1.18884e+89 2.39496e+89)
(-5.84762e+89 -6.627e+87 2.71415e+89)
(1.59996e+90 9.2167e+89 6.07565e+89)
(4.50655e+89 4.38186e+89 6.11841e+89)
(8.23198e+89 2.9236e+89 4.7552e+89)
(1.12366e+90 2.44176e+89 3.2919e+89)
(1.24016e+90 2.27434e+89 2.72572e+89)
(1.20439e+90 2.1618e+89 2.4585e+89)
(1.06765e+90 1.93744e+89 1.83132e+89)
(8.83054e+89 1.99057e+89 1.01283e+89)
(9.55913e+89 3.23508e+89 1.46781e+89)
(-8.37466e+89 2.79737e+89 3.00773e+89)
(1.9231e+90 7.85343e+89 6.87616e+89)
(5.91807e+89 2.35894e+89 7.78888e+89)
(3.24868e+89 -1.81756e+89 7.54758e+89)
(7.17963e+89 -1.38878e+89 5.13522e+89)
(1.03639e+90 1.28901e+88 3.31663e+89)
(1.1265e+90 9.41009e+88 1.81362e+89)
(1.18906e+90 1.27069e+89 8.59022e+87)
(1.17357e+90 1.35833e+89 -2.55824e+88)
(1.36799e+90 4.22051e+89 6.46842e+88)
(7.68141e+89 4.66341e+89 5.01032e+88)
(2.75941e+90 9.71122e+89 8.60131e+89)
(1.96545e+90 6.39815e+89 6.93646e+89)
(1.42165e+90 3.30336e+89 6.36373e+89)
(9.01824e+89 1.6377e+89 4.04241e+89)
(7.98626e+89 2.50144e+89 6.35978e+88)
(9.3151e+89 3.77713e+89 -2.2351e+89)
(1.58373e+90 4.76245e+89 -2.58882e+89)
(1.90309e+90 4.64173e+89 -1.28386e+89)
(2.2172e+90 5.74065e+89 4.60581e+87)
(2.00822e+90 6.09702e+89 -4.22246e+88)
(1.11708e+90 5.53052e+89 2.2515e+89)
(5.86624e+89 5.43937e+89 6.47027e+89)
(6.60265e+89 6.12936e+89 8.4451e+89)
(6.79241e+89 6.77609e+89 7.91508e+89)
(5.91568e+88 5.06889e+89 7.30464e+89)
(-7.68425e+88 4.86412e+89 8.48692e+89)
(-1.72618e+88 5.43113e+89 9.43199e+89)
(-1.80176e+88 5.24359e+89 8.36237e+89)
(3.35228e+89 3.72939e+89 6.72658e+89)
(6.03297e+89 2.33723e+89 3.00813e+89)
(1.16928e+90 3.68606e+89 2.69172e+89)
(-1.43607e+88 1.76955e+89 6.43366e+89)
(-6.29808e+89 -9.77727e+87 6.7108e+89)
(-3.9626e+89 1.74189e+89 4.32077e+89)
(-6.89222e+89 2.12981e+89 4.1231e+89)
(-6.53637e+89 2.24877e+89 6.14978e+89)
(-1.44889e+89 2.29979e+89 5.51994e+89)
(-1.11257e+89 2.48426e+89 4.72477e+89)
(-8.04342e+88 2.96292e+89 5.2462e+89)
(2.28297e+89 3.18547e+89 2.85113e+89)
(9.73097e+89 4.49595e+89 3.07575e+89)
(-4.51583e+89 4.377e+89 4.87073e+89)
(-4.32141e+89 4.11324e+89 4.71202e+89)
(-6.37314e+89 3.77891e+89 3.72115e+89)
(-5.3743e+89 3.07239e+89 3.88099e+89)
(5.96824e+88 3.22612e+89 4.52651e+89)
(1.79943e+89 3.08918e+89 4.64136e+89)
(1.6796e+89 3.26986e+89 3.2522e+89)
(1.62179e+88 4.71802e+89 1.93537e+89)
(-6.47447e+88 5.19441e+89 2.30548e+89)
(8.86299e+89 6.88258e+89 3.45455e+89)
(-1.36328e+89 6.08712e+89 3.76963e+89)
(-5.06112e+89 5.01482e+89 3.91792e+89)
(-3.01745e+89 3.90892e+89 2.88695e+89)
(-5.91683e+88 2.64668e+89 3.07087e+89)
(1.56848e+89 2.55458e+89 3.40708e+89)
(9.65708e+88 2.81941e+89 3.6773e+89)
(1.58201e+89 3.23472e+89 3.1207e+89)
(-4.29199e+89 5.09138e+89 3.97637e+89)
(-1.97476e+89 6.7416e+89 3.04147e+89)
(9.8907e+89 8.87835e+89 3.00361e+89)
(4.25939e+88 6.74385e+89 3.28698e+89)
(4.23058e+89 4.56831e+89 3.59908e+89)
(6.02121e+89 3.63733e+89 3.42175e+89)
(3.75361e+89 2.9008e+89 3.33889e+89)
(1.88768e+89 2.77345e+89 3.1909e+89)
(-8.98826e+88 2.62628e+89 2.94758e+89)
(-2.62401e+89 2.39743e+89 2.93235e+89)
(-8.153e+89 3.78521e+89 7.38587e+89)
(1.2226e+90 6.94523e+89 3.27152e+89)
(1.20644e+90 1.04749e+90 2.43593e+89)
(3.55292e+88 7.33459e+89 3.91117e+89)
(-1.77983e+89 4.03147e+89 5.29424e+89)
(-5.58744e+89 2.70927e+89 5.28001e+89)
(-1.34335e+90 1.90829e+89 5.31229e+89)
(-1.70739e+90 1.97279e+89 5.44692e+89)
(-1.44238e+90 2.26873e+89 4.64842e+89)
(-1.74119e+90 6.08482e+88 4.51813e+89)